Geo opt and freq calc of methane                                        
Freq      RB3LYP                                                      6-311+G(d,p)        
Number of atoms                            I                5
Charge                                     I                0
Multiplicity                               I                1
Number of electrons                        I               10
Number of alpha electrons                  I                5
Number of beta electrons                   I                5
Number of basis functions                  I               46
Number of independant functions            I               46
Number of point charges in /Mol/           I                0
Number of translation vectors              I                0
Info1-9                                    I   N=           9
          14          12        1002           0           0         100
           6          18        -501
Num ILSW                                   I              100
ILSW                                       I   N=         100
           0           0           0           0           2           0
           0           0           0           0         402      200000
           0           0           0           0           0           0
           0      800000           0           0           1           0
           1           0           0           0     1000000           0
           0           0      100000           0          -1           0
           0           0           0           0           0           0
           0           0           0           1           0           0
           0           0           1      720000      810000           0
           0           0           0           0           0           0
           0           0           0           0           0           0
           0           0           0           0           0           0
           0           0           0           0           0           0
           0           0           0           0           0           0
           0           0           0           0           0           0
           0           0           0           0           0           0
           0           0           0           0
Number of contracted shells                I               22
Highest angular momentum                   I                2
Largest degree of contraction              I                6
Number of primitive shells                 I               37
Pure/Cartesian d shells                    I                0
Pure/Cartesian f shells                    I                0
Virial Ratio                               R      2.006337539378960E+00
SCF Energy                                 R     -4.053392821615062E+01
Total Energy                               R     -4.053392821615062E+01
RMS Force                                  R      2.775389917653273E-06
RMS Density                                R      1.728810342244884E-10
Atomic numbers                             I   N=           5
           6           1           1           1           1
Nuclear charges                            R   N=           5
  6.00000000E+00  1.00000000E+00  1.00000000E+00  1.00000000E+00  1.00000000E+00
Current cartesian coordinates              R   N=          15
 -2.11758237E-22  6.89718879E-06  1.38050658E-30  2.73968136E-01  2.04326758E+00
  3.87740912E-25  1.83507820E+00 -9.39410023E-01 -9.04728795E-25 -1.05452317E+00
 -5.51949471E-01  1.68324341E+00 -1.05452317E+00 -5.51949471E-01 -1.68324341E+00
Int Atom Types                             I   N=           5
           0           0           0           0           0
Force Field                                I                0
MM charges                                 R   N=           5
  0.00000000E+00  0.00000000E+00  0.00000000E+00  0.00000000E+00  0.00000000E+00
Integer atomic weights                     I   N=           5
          12           1           1           1           1
Real atomic weights                        R   N=           5
  1.20000000E+01  1.00782504E+00  1.00782504E+00  1.00782504E+00  1.00782504E+00
Atom residue info                          I   N=           5
           0           0           0           0           0
Atom fragment info                         I   N=           5
           0           0           0           0           0
Atom residue num                           I   N=           5
           0           0           0           0           0
Nuclear spins                              I   N=           5
           0           1           1           1           1
Nuclear ZEff                               R   N=           5
 -3.60000000E+00 -1.00000000E+00 -1.00000000E+00 -1.00000000E+00 -1.00000000E+00
Nuclear QMom                               R   N=           5
  0.00000000E+00  0.00000000E+00  0.00000000E+00  0.00000000E+00  0.00000000E+00
Nuclear GFac                               R   N=           5
  0.00000000E+00  2.79284600E+00  2.79284600E+00  2.79284600E+00  2.79284600E+00
MicOpt                                     I   N=           5
          -1          -1          -1          -1          -1
Constraint Structure                       R   N=          15
 -2.11758237E-22  6.89718879E-06  1.38050658E-30  2.73968136E-01  2.04326758E+00
  3.87740912E-25  1.83507820E+00 -9.39410023E-01 -9.04728795E-25 -1.05452317E+00
 -5.51949471E-01  1.68324341E+00 -1.05452317E+00 -5.51949471E-01 -1.68324341E+00
ONIOM Charges                              I   N=          16
           0           0           0           0           0           0
           0           0           0           0           0           0
           0           0           0           0
ONIOM Multiplicities                       I   N=          16
           1           0           0           0           0           0
           0           0           0           0           0           0
           0           0           0           0
Atom Layers                                I   N=           5
           0           0           0           0           0
Atom Modifiers                             I   N=           5
           0           0           0           0           0
Int Atom Modified Types                    I   N=           5
           0           0           0           0           0
Link Atoms                                 I   N=           5
           0           0           0           0           0
Atom Modified MM Charges                   R   N=           5
  0.00000000E+00  0.00000000E+00  0.00000000E+00  0.00000000E+00  0.00000000E+00
Link Distances                             R   N=          20
  0.00000000E+00  0.00000000E+00  0.00000000E+00  0.00000000E+00  0.00000000E+00
  0.00000000E+00  0.00000000E+00  0.00000000E+00  0.00000000E+00  0.00000000E+00
  0.00000000E+00  0.00000000E+00  0.00000000E+00  0.00000000E+00  0.00000000E+00
  0.00000000E+00  0.00000000E+00  0.00000000E+00  0.00000000E+00  0.00000000E+00
MxBond                                     I                4
NBond                                      I   N=           5
           4           1           1           1           1
IBond                                      I   N=          20
           2           3           4           5           1           0
           0           0           1           0           0           0
           1           0           0           0           1           0
           0           0
RBond                                      R   N=          20
  1.00000000E+00  1.00000000E+00  1.00000000E+00  1.00000000E+00  1.00000000E+00
  0.00000000E+00  0.00000000E+00  0.00000000E+00  1.00000000E+00  0.00000000E+00
  0.00000000E+00  0.00000000E+00  1.00000000E+00  0.00000000E+00  0.00000000E+00
  0.00000000E+00  1.00000000E+00  0.00000000E+00  0.00000000E+00  0.00000000E+00
Shell types                                I   N=          22
           0          -1          -1          -1          -1          -2
           0           0           0           1           0           0
           0           1           0           0           0           1
           0           0           0           1
Number of primitives per shell             I   N=          22
           6           3           1           1           1           1
           3           1           1           1           3           1
           1           1           3           1           1           1
           3           1           1           1
Shell to atom map                          I   N=          22
           1           1           1           1           1           1
           2           2           2           2           3           3
           3           3           4           4           4           4
           5           5           5           5
Primitive exponents                        R   N=          37
  4.56324000E+03  6.82024000E+02  1.54973000E+02  4.44553000E+01  1.30290000E+01
  1.82773000E+00  2.09642000E+01  4.80331000E+00  1.45933000E+00  4.83456000E-01
  1.45585000E-01  4.38000000E-02  6.26000000E-01  3.38650000E+01  5.09479000E+00
  1.15879000E+00  3.25840000E-01  1.02741000E-01  7.50000000E-01  3.38650000E+01
  5.09479000E+00  1.15879000E+00  3.25840000E-01  1.02741000E-01  7.50000000E-01
  3.38650000E+01  5.09479000E+00  1.15879000E+00  3.25840000E-01  1.02741000E-01
  7.50000000E-01  3.38650000E+01  5.09479000E+00  1.15879000E+00  3.25840000E-01
  1.02741000E-01  7.50000000E-01
Contraction coefficients                   R   N=          37
  1.96665025E-03  1.52306019E-02  7.61269097E-02  2.60801033E-01  6.16462078E-01
  2.21006028E-01  1.14660081E-01  9.19999648E-01 -3.03068213E-03  1.00000000E+00
  1.00000000E+00  1.00000000E+00  1.00000000E+00  2.54938145E-02  1.90373109E-01
  8.52161486E-01  1.00000000E+00  1.00000000E+00  1.00000000E+00  2.54938145E-02
  1.90373109E-01  8.52161486E-01  1.00000000E+00  1.00000000E+00  1.00000000E+00
  2.54938145E-02  1.90373109E-01  8.52161486E-01  1.00000000E+00  1.00000000E+00
  1.00000000E+00  2.54938145E-02  1.90373109E-01  8.52161486E-01  1.00000000E+00
  1.00000000E+00  1.00000000E+00
P(S=P) Contraction coefficients            R   N=          37
  0.00000000E+00  0.00000000E+00  0.00000000E+00  0.00000000E+00  0.00000000E+00
  0.00000000E+00  4.02486927E-02  2.37593957E-01  8.15853851E-01  1.00000000E+00
  1.00000000E+00  1.00000000E+00  0.00000000E+00  0.00000000E+00  0.00000000E+00
  0.00000000E+00  0.00000000E+00  0.00000000E+00  0.00000000E+00  0.00000000E+00
  0.00000000E+00  0.00000000E+00  0.00000000E+00  0.00000000E+00  0.00000000E+00
  0.00000000E+00  0.00000000E+00  0.00000000E+00  0.00000000E+00  0.00000000E+00
  0.00000000E+00  0.00000000E+00  0.00000000E+00  0.00000000E+00  0.00000000E+00
  0.00000000E+00  0.00000000E+00
Coordinates of each shell                  R   N=          66
 -2.11758237E-22  6.89718879E-06  1.38050658E-30 -2.11758237E-22  6.89718879E-06
  1.38050658E-30 -2.11758237E-22  6.89718879E-06  1.38050658E-30 -2.11758237E-22
  6.89718879E-06  1.38050658E-30 -2.11758237E-22  6.89718879E-06  1.38050658E-30
 -2.11758237E-22  6.89718879E-06  1.38050658E-30  2.73968136E-01  2.04326758E+00
  3.87740912E-25  2.73968136E-01  2.04326758E+00  3.87740912E-25  2.73968136E-01
  2.04326758E+00  3.87740912E-25  2.73968136E-01  2.04326758E+00  3.87740912E-25
  1.83507820E+00 -9.39410023E-01 -9.04728795E-25  1.83507820E+00 -9.39410023E-01
 -9.04728795E-25  1.83507820E+00 -9.39410023E-01 -9.04728795E-25  1.83507820E+00
 -9.39410023E-01 -9.04728795E-25 -1.05452317E+00 -5.51949471E-01  1.68324341E+00
 -1.05452317E+00 -5.51949471E-01  1.68324341E+00 -1.05452317E+00 -5.51949471E-01
  1.68324341E+00 -1.05452317E+00 -5.51949471E-01  1.68324341E+00 -1.05452317E+00
 -5.51949471E-01 -1.68324341E+00 -1.05452317E+00 -5.51949471E-01 -1.68324341E+00
 -1.05452317E+00 -5.51949471E-01 -1.68324341E+00 -1.05452317E+00 -5.51949471E-01
 -1.68324341E+00
Alpha Orbital Energies                     R   N=          46
 -1.01531208E+01 -6.96607997E-01 -3.95380144E-01 -3.95377051E-01 -3.95375846E-01
  9.53933857E-03  5.71259862E-02  5.71349960E-02  5.71376948E-02  1.45810541E-01
  1.45811704E-01  1.45813917E-01  2.10635262E-01  4.00526996E-01  4.00527748E-01
  4.00532868E-01  5.94916357E-01  5.94918291E-01  5.94919919E-01  6.04181374E-01
  8.23869230E-01  9.64333624E-01  9.64334972E-01  1.45417068E+00  1.45417214E+00
  1.45417668E+00  1.53270073E+00  1.53270559E+00  1.53270593E+00  1.90135460E+00
  1.90135616E+00  1.90136279E+00  2.27702160E+00  2.31357081E+00  2.31357263E+00
  2.47591936E+00  2.47592457E+00  2.47592609E+00  2.54336206E+00  2.54336248E+00
  2.54337050E+00  2.87447625E+00  3.79070127E+00  3.79071182E+00  3.79072036E+00
  2.40188379E+01
Alpha MO coefficients                      R   N=        2116
  5.62955000E-01  4.63103827E-01  9.90713144E-09  9.81663226E-09  0.00000000E+00
  1.96312180E-02 -9.13072278E-08 -4.39165690E-08  0.00000000E+00 -6.67046326E-03
  4.49686413E-09  3.34804284E-09  0.00000000E+00 -3.92188424E-03  1.18513424E-08
  2.70176283E-08  0.00000000E+00  3.29367957E-09  0.00000000E+00  0.00000000E+00
 -6.49208722E-08  2.67515641E-08  3.20165791E-04 -3.52519147E-03  3.35146996E-03
  2.73937192E-04  2.04298463E-03  0.00000000E+00  3.20182869E-04 -3.52508751E-03
  3.35142074E-03  1.83477507E-03 -9.39243006E-04  0.00000000E+00  3.20166316E-04
 -3.52519917E-03  3.35148425E-03 -1.05438034E-03 -5.51870388E-04  1.68301879E-03
  3.20166316E-04 -3.52519917E-03  3.35148425E-03 -1.05438034E-03 -5.51870388E-04
 -1.68301879E-03 -1.09187219E-01 -1.68922682E-01 -4.96662455E-07 -8.29136759E-07
  0.00000000E+00  4.39565526E-01 -7.38201540E-07 -1.12510929E-06  0.00000000E+00
  2.75675171E-01  5.78883091E-07 -1.21171076E-06  0.00000000E+00  1.92094093E-02
  1.18201923E-07  2.09507015E-07  0.00000000E+00 -2.49508036E-07  0.00000000E+00
  0.00000000E+00 -3.90930069E-07 -1.44437772E-07  8.61042737E-02  1.02169206E-01
  3.13049641E-03 -2.14977604E-03 -1.60330085E-02  0.00000000E+00  8.61038879E-02
  1.02168519E-01  3.13006516E-03 -1.43994566E-02  7.37135597E-03  0.00000000E+00
  8.61047171E-02  1.02169345E-01  3.13078909E-03  8.27456438E-03  4.33117962E-03
 -1.32081082E-02  8.61047171E-02  1.02169345E-01  3.13078909E-03  8.27456438E-03
  4.33117962E-03  1.32081082E-02 -6.85098444E-07 -1.08424031E-06  1.00055154E-02
  2.05120972E-01  0.00000000E+00  3.29593109E-06  1.41683591E-02  2.90469086E-01
  0.00000000E+00  3.94651650E-07  9.71497062E-03  1.99144230E-01  0.00000000E+00
  2.12794788E-06  6.66163495E-04  1.36741414E-02  0.00000000E+00 -1.04215111E-02
  0.00000000E+00  0.00000000E+00 -2.02694814E-02  6.73658425E-03  1.81250405E-01
  2.53127991E-01  1.18418701E-01 -3.04777368E-03 -1.43937591E-02  0.00000000E+00
 -7.48999763E-02 -1.04603017E-01 -4.89361114E-02  1.08439333E-02  7.87810703E-03
  0.00000000E+00 -5.31757201E-02 -7.42616645E-02 -3.47424629E-02 -3.52411140E-03
  1.09231254E-02  6.64536466E-03 -5.31757201E-02 -7.42616645E-02 -3.47424629E-02
 -3.52411140E-03  1.09231254E-02 -6.64536466E-03  0.00000000E+00  0.00000000E+00
  0.00000000E+00  0.00000000E+00  2.05364953E-01  0.00000000E+00  0.00000000E+00
  0.00000000E+00  2.90814084E-01  0.00000000E+00  0.00000000E+00  0.00000000E+00
  1.99381430E-01  0.00000000E+00  0.00000000E+00  0.00000000E+00  1.36930799E-02
  0.00000000E+00 -2.10570337E-02 -1.10214018E-02  0.00000000E+00  0.00000000E+00
  0.00000000E+00  0.00000000E+00  0.00000000E+00  0.00000000E+00  0.00000000E+00
  1.31180315E-02  0.00000000E+00  0.00000000E+00  0.00000000E+00  0.00000000E+00
  0.00000000E+00  1.31181936E-02  1.48520709E-01  2.07419559E-01  9.70365396E-02
  1.16281616E-02  6.08633977E-03 -5.44291787E-03 -1.48520709E-01 -2.07419559E-01
 -9.70365396E-02 -1.16281616E-02 -6.08633977E-03 -5.44291787E-03 -6.38667367E-08
 -1.58706112E-07  2.05120874E-01 -1.00048914E-02  0.00000000E+00  2.43582120E-07
  2.90469107E-01 -1.41690333E-02  0.00000000E+00  3.24100376E-06  1.99144911E-01
 -9.71405165E-03  0.00000000E+00 -2.39056414E-06  1.36745246E-02 -6.67381740E-04
  0.00000000E+00 -1.77489725E-02  0.00000000E+00  0.00000000E+00  4.04754317E-03
 -1.52794459E-02  1.53619023E-02  2.14534794E-02  1.00377532E-02  1.27900933E-02
 -2.96961509E-03  0.00000000E+00  1.65763497E-01  2.31500001E-01  1.08305072E-01
 -9.48170764E-03  1.09223536E-02  0.00000000E+00 -9.05622989E-02 -1.26479176E-01
 -5.91687548E-02  6.01188576E-03 -4.35030119E-03  1.13180384E-02 -9.05622989E-02
 -1.26479176E-01 -5.91687548E-02  6.01188576E-03 -4.35030119E-03 -1.13180384E-02
  4.39941842E-02  7.23928650E-02  7.34539564E-07 -1.84961595E-06  0.00000000E+00
 -2.26726389E-01 -4.91970421E-06 -2.80668348E-06  0.00000000E+00 -4.47970289E-01
  2.02514478E-05 -2.64953387E-06  0.00000000E+00  2.06215443E+00  4.59181130E-05
  5.24942097E-05  0.00000000E+00  1.93455641E-06  0.00000000E+00  0.00000000E+00
  8.17719829E-07  9.61047091E-07 -7.77051217E-03  8.29941268E-02 -3.37506225E-01
  1.57452247E-03  1.17427779E-02  0.00000000E+00 -7.76891623E-03  8.29994394E-02
 -3.37512525E-01  1.05454035E-02 -5.39824985E-03  0.00000000E+00 -7.76633323E-03
  8.29878949E-02 -3.37413654E-01 -6.06065775E-03 -3.17212604E-03  9.67422107E-03
 -7.76633323E-03  8.29878949E-02 -3.37413654E-01 -6.06065775E-03 -3.17212604E-03
 -9.67422107E-03  0.00000000E+00  0.00000000E+00  0.00000000E+00  0.00000000E+00
 -7.32242829E-02  0.00000000E+00  0.00000000E+00  0.00000000E+00 -1.26071156E-01
  0.00000000E+00  0.00000000E+00  0.00000000E+00 -1.67860918E-01  0.00000000E+00
  0.00000000E+00  0.00000000E+00  1.37998476E+00  0.00000000E+00  2.18918780E-02
  1.14585971E-02  0.00000000E+00  0.00000000E+00  0.00000000E+00  0.00000000E+00
  0.00000000E+00  0.00000000E+00  0.00000000E+00  6.20569435E-03  0.00000000E+00
  0.00000000E+00  0.00000000E+00  0.00000000E+00  0.00000000E+00  6.20573116E-03
 -3.96072578E-02  2.69795856E-02 -4.81886248E-01  7.89904049E-04  4.13444824E-04
  4.94483981E-03  3.96072578E-02 -2.69795856E-02  4.81886248E-01 -7.89904049E-04
 -4.13444824E-04  4.94483981E-03 -2.43272656E-06 -3.77965400E-06 -6.53858113E-02
 -3.29656290E-02  0.00000000E+00  5.97000179E-06 -1.12577948E-01 -5.67557093E-02
  0.00000000E+00  9.16499324E-05 -1.49888675E-01 -7.55804339E-02  0.00000000E+00
  7.61399073E-06  1.23223863E+00  6.21223008E-01  0.00000000E+00  2.13963843E-02
  0.00000000E+00  0.00000000E+00  6.73109808E-03  1.03658473E-02 -2.73997693E-02
  1.86614336E-02 -3.33361846E-01  5.39953664E-03  1.73523989E-03  0.00000000E+00
 -2.86073323E-02  1.94829756E-02 -3.48084385E-01  4.54825868E-03  3.30217413E-03
  0.00000000E+00  2.80026109E-02 -1.90796650E-02  3.40657252E-01  4.98304797E-03
  2.50142339E-03  8.91497174E-04  2.80026109E-02 -1.90796650E-02  3.40657252E-01
  4.98304797E-03  2.50142339E-03 -8.91497174E-04 -1.37095956E-06 -2.32973132E-06
  3.29661176E-02 -6.53922771E-02  0.00000000E+00  8.24802259E-06  5.67559269E-02
 -1.12579219E-01  0.00000000E+00  1.24042050E-05  7.55697794E-02 -1.49921530E-01
  0.00000000E+00 -5.23884689E-05 -6.21214074E-01  1.23219394E+00  0.00000000E+00
  3.25656077E-04  0.00000000E+00  0.00000000E+00  2.04044878E-02 -1.39241131E-02
 -4.00259384E-02  2.72426004E-02 -4.86868818E-01 -3.00022752E-03  3.99750082E-03
  0.00000000E+00  3.91742319E-02 -2.66686186E-02  4.76540324E-01 -1.43751246E-03
  4.84674143E-03  0.00000000E+00  4.26283609E-04 -2.95518646E-04  5.18365730E-03
 -2.80154710E-03  5.53643623E-03  1.31198140E-05  4.26283609E-04 -2.95518646E-04
  5.18365730E-03 -2.80154710E-03  5.53643623E-03 -1.31198140E-05  4.56321661E-06
  7.00463802E-06 -1.55497930E-01  3.16315713E-03  0.00000000E+00 -9.22893100E-06
 -1.32629975E-01  2.69691033E-03  0.00000000E+00 -2.21796556E-04 -1.37193592E+00
  2.79085627E-02  0.00000000E+00 -2.16914612E-04 -7.10288736E-01  1.44622315E-02
  0.00000000E+00 -3.06843961E-02  0.00000000E+00  0.00000000E+00  5.90424739E-03
 -2.56558167E-02  8.14269361E-03  2.42584101E-02  2.95403427E-01 -1.40513013E-02
  5.46447244E-03  0.00000000E+00  6.49518195E-02  1.93526938E-01  2.35590623E+00
  2.22623529E-02 -1.86435460E-02  0.00000000E+00 -3.65417558E-02 -1.08888896E-01
 -1.32538969E+00 -2.77799366E-03  6.56267187E-03 -1.90986409E-02 -3.65417558E-02
 -1.08888896E-01 -1.32538969E+00 -2.77799366E-03  6.56267187E-03  1.90986409E-02
  0.00000000E+00  0.00000000E+00  0.00000000E+00  0.00000000E+00 -1.55530285E-01
  0.00000000E+00  0.00000000E+00  0.00000000E+00 -1.32659425E-01  0.00000000E+00
  0.00000000E+00  0.00000000E+00 -1.37223292E+00  0.00000000E+00  0.00000000E+00
  0.00000000E+00 -7.10428411E-01  0.00000000E+00 -3.58190599E-02 -1.87483475E-02
  0.00000000E+00  0.00000000E+00  0.00000000E+00  0.00000000E+00  0.00000000E+00
  0.00000000E+00  0.00000000E+00 -1.47464908E-02  0.00000000E+00  0.00000000E+00
  0.00000000E+00  0.00000000E+00  0.00000000E+00 -1.47457303E-02  5.89716832E-02
  1.75724726E-01  2.13903400E+00 -1.93079512E-02 -1.01062172E-02  1.60737839E-02
 -5.89716832E-02 -1.75724726E-01 -2.13903400E+00  1.93079512E-02  1.01062172E-02
  1.60737839E-02  2.38835784E-06  3.68328122E-06 -3.16394175E-03 -1.55493990E-01
  0.00000000E+00 -6.77216569E-06 -2.69937966E-03 -1.32624179E-01  0.00000000E+00
 -9.71738514E-05 -2.79172954E-02 -1.37197058E+00  0.00000000E+00 -9.39018548E-05
 -1.44388189E-02 -7.10353652E-01  0.00000000E+00 -1.68637743E-02  0.00000000E+00
  0.00000000E+00 -3.46631886E-02  1.21932311E-02  7.17681012E-02  2.13856120E-01
  2.60317400E+00  5.80492417E-03  3.07848432E-02  0.00000000E+00 -3.15961441E-02
 -9.41535515E-02 -1.14603908E+00 -1.83023188E-02 -5.52753851E-03  0.00000000E+00
 -2.00821270E-02 -5.98527988E-02 -7.28453267E-01  6.27553377E-03 -1.13014700E-02
 -1.04958769E-02 -2.00821270E-02 -5.98527988E-02 -7.28453267E-01  6.27553377E-03
 -1.13014700E-02  1.04958769E-02 -6.40956368E-02 -1.00577322E-01 -8.43067742E-06
 -5.81136790E-06  0.00000000E+00  1.78245864E-01 -1.57290191E-05 -6.83371611E-06
  0.00000000E+00  3.16433802E+00 -1.18003419E-04 -5.68898250E-05  0.00000000E+00
  3.72451304E+00 -3.59757804E-05 -5.95853017E-05  0.00000000E+00 -2.74709257E-07
  0.00000000E+00  0.00000000E+00 -1.05426757E-06  6.90146127E-07 -3.89606296E-02
 -4.65117260E-02 -2.02845976E+00 -1.16092666E-03 -8.65117659E-03  0.00000000E+00
 -3.89592201E-02 -4.64715678E-02 -2.02850487E+00 -7.77260867E-03  3.97786046E-03
  0.00000000E+00 -3.89673140E-02 -4.65681196E-02 -2.02865081E+00  4.46382278E-03
  2.33649672E-03 -7.12739213E-03 -3.89673140E-02 -4.65681196E-02 -2.02865081E+00
  4.46382278E-03  2.33649672E-03  7.12739213E-03  0.00000000E+00  0.00000000E+00
  0.00000000E+00  0.00000000E+00 -5.95531925E-02  0.00000000E+00  0.00000000E+00
  0.00000000E+00 -4.21166423E-02  0.00000000E+00  0.00000000E+00  0.00000000E+00
  1.20177033E+00  0.00000000E+00  0.00000000E+00  0.00000000E+00 -1.20856923E+00
  0.00000000E+00 -2.12361493E-02 -1.11158806E-02  0.00000000E+00  0.00000000E+00
  0.00000000E+00  0.00000000E+00  0.00000000E+00  0.00000000E+00  0.00000000E+00
  1.80187845E-02  0.00000000E+00  0.00000000E+00  0.00000000E+00  0.00000000E+00
  0.00000000E+00  1.80165493E-02 -6.85605344E-02 -1.21047308E+00  1.62843295E+00
 -2.76925118E-02 -1.44944162E-02  6.22197333E-02  6.85605344E-02  1.21047308E+00
 -1.62843295E+00  2.76925118E-02  1.44944162E-02  6.22197333E-02 -2.49979877E-06
 -4.36148198E-06 -4.78290318E-02 -3.54819924E-02  0.00000000E+00  1.52582131E-05
 -3.38219212E-02 -2.50943257E-02  0.00000000E+00  5.47587991E-05  9.65211427E-01
  7.15971096E-01  0.00000000E+00  2.72180655E-05 -9.70692733E-01 -7.20010605E-01
  0.00000000E+00 -2.05052784E-02  0.00000000E+00  0.00000000E+00 -9.80940851E-03
 -7.60429804E-03 -5.85435433E-02 -1.03364023E+00  1.39048525E+00  2.06164227E-02
  5.65520668E-02  0.00000000E+00 -3.72422653E-02 -6.57490014E-01  8.84496356E-01
  4.06425126E-02 -2.66377021E-03  0.00000000E+00  4.78885945E-02  8.45514461E-01
 -1.13750647E+00  3.38150307E-02  2.08585764E-02 -3.08767613E-02  4.78885945E-02
  8.45514461E-01 -1.13750647E+00  3.38150307E-02  2.08585764E-02  3.08767613E-02
 -1.63099626E-06 -2.74228696E-06 -3.54750452E-02  4.78310494E-02  0.00000000E+00
  4.72003138E-06 -2.50852155E-02  3.38190373E-02  0.00000000E+00  7.80224340E-05
  7.15926044E-01 -9.65234425E-01  0.00000000E+00  6.06744701E-05 -7.20013684E-01
  9.70721551E-01  0.00000000E+00 -3.22295981E-03  0.00000000E+00  0.00000000E+00
  1.83938618E-02 -1.50234042E-02  6.01936111E-02  1.06277426E+00 -1.42978799E+00
  4.41956226E-03 -6.15828386E-02  0.00000000E+00 -7.52610014E-02 -1.32878090E+00
  1.78756853E+00  6.36302899E-02 -4.15515825E-02  0.00000000E+00  7.53379723E-03
  1.32967766E-01 -1.78949486E-01  1.37755312E-02 -1.28801754E-02 -4.85479515E-03
  7.53379723E-03  1.32967766E-01 -1.78949486E-01  1.37755312E-02 -1.28801754E-02
  4.85479515E-03 -3.83344506E-06 -6.82693980E-06  2.73531766E-01 -5.47573644E-02
  0.00000000E+00  1.79991601E-05  9.43241515E-01 -1.88823681E-01  0.00000000E+00
  1.07798570E-04 -1.69331919E+00  3.38980370E-01  0.00000000E+00 -1.02971603E-04
 -2.21472658E-01  4.43400851E-02  0.00000000E+00  4.99522020E-02  0.00000000E+00
  0.00000000E+00 -2.18710641E-02  5.02694088E-02  6.77753387E-03  4.11428115E-02
 -1.46885810E-01  4.28935825E-02 -1.93189400E-03  0.00000000E+00 -1.01637073E-01
 -6.17746245E-01  2.20123169E+00 -4.51746041E-02  3.62259123E-02  0.00000000E+00
  4.74157373E-02  2.88120062E-01 -1.02704744E+00  1.86439782E-02 -2.06506315E-02
  3.73209880E-02  4.74157373E-02  2.88120062E-01 -1.02704744E+00  1.86439782E-02
 -2.06506315E-02 -3.73209880E-02  0.00000000E+00  0.00000000E+00  0.00000000E+00
  0.00000000E+00  2.78958300E-01  0.00000000E+00  0.00000000E+00  0.00000000E+00
  9.61956438E-01  0.00000000E+00  0.00000000E+00  0.00000000E+00 -1.72690311E+00
  0.00000000E+00  0.00000000E+00  0.00000000E+00 -2.25893470E-01  0.00000000E+00
  6.57098538E-02  3.43936808E-02  0.00000000E+00  0.00000000E+00  0.00000000E+00
  0.00000000E+00  0.00000000E+00  0.00000000E+00  0.00000000E+00  4.28595881E-02
  0.00000000E+00  0.00000000E+00  0.00000000E+00  0.00000000E+00  0.00000000E+00
  4.28594398E-02 -8.62351487E-02 -5.24103030E-01  1.86774093E+00  4.25172354E-02
  2.22542568E-02 -2.50071106E-02  8.62351487E-02  5.24103030E-01 -1.86774093E+00
 -4.25172354E-02 -2.22542568E-02 -2.50071106E-02 -9.72172127E-06 -1.71083953E-05
  5.47568914E-02  2.73531521E-01  0.00000000E+00  6.70891019E-06  1.88822729E-01
  9.43244446E-01  0.00000000E+00  5.50845981E-04 -3.38970418E-01 -1.69331004E+00
  0.00000000E+00 -3.52260034E-04 -4.43468277E-02 -2.21519364E-01  0.00000000E+00
  4.03765456E-02  0.00000000E+00  0.00000000E+00  6.06812067E-02 -1.37187681E-02
 -1.05418736E-01 -6.40913364E-01  2.28299561E+00 -5.08702092E-03 -5.86603421E-02
  0.00000000E+00  2.87144686E-02  1.74310610E-01 -6.22198998E-01  3.30706508E-02
  2.94035291E-02  0.00000000E+00  3.83110032E-02  2.32632888E-01 -8.30028368E-01
 -1.04867327E-02  3.21334948E-02  3.01690284E-02  3.83110032E-02  2.32632888E-01
 -8.30028368E-01 -1.04867327E-02  3.21334948E-02 -3.01690284E-02 -3.37137401E-02
 -5.85801966E-02 -3.27921167E-05 -6.65194803E-05  0.00000000E+00 -2.24508947E-02
 -1.18061361E-04 -2.30634449E-04  0.00000000E+00  2.14229136E+00  1.84637782E-04
  3.66422916E-04  0.00000000E+00 -1.48889897E+00  5.69567023E-05  6.64570066E-05
  0.00000000E+00 -1.67886671E-05  0.00000000E+00  0.00000000E+00 -1.33506433E-05
 -1.22607969E-06 -8.15933449E-02 -1.30307388E+00  7.67941951E-01  1.32419365E-03
  9.90887223E-03  0.00000000E+00 -8.16171924E-02 -1.30324243E+00  7.68477108E-01
  8.88073342E-03 -4.55905098E-03  0.00000000E+00 -8.16350864E-02 -1.30336174E+00
  7.68830431E-01 -5.10792622E-03 -2.67953925E-03  8.14018742E-03 -8.16350864E-02
 -1.30336174E+00  7.68830431E-01 -5.10792622E-03 -2.67953925E-03 -8.14018742E-03
  1.20136893E-01  2.36859867E-01  3.34622128E-06  2.43322966E-06  0.00000000E+00
 -2.13971594E+00  4.62655681E-06  4.81327579E-07  0.00000000E+00  6.63719496E+00
 -2.51143715E-05 -4.46999680E-05  0.00000000E+00  1.95705830E+00 -1.74976842E-05
 -2.03342122E-05  0.00000000E+00  4.08194160E-07  0.00000000E+00  0.00000000E+00
 -1.78426520E-06  4.30079687E-06  5.73526589E-02 -3.86212910E-01 -1.80242191E+00
  1.89976630E-02  1.41660177E-01  0.00000000E+00  5.73523249E-02 -3.86226862E-01
 -1.80241802E+00  1.27227862E-01 -6.51269520E-02  0.00000000E+00  5.73558524E-02
 -3.86217405E-01 -1.80248914E+00 -7.31137633E-02 -3.82683032E-02  1.16701825E-01
  5.73558524E-02 -3.86217405E-01 -1.80248914E+00 -7.31137633E-02 -3.82683032E-02
 -1.16701825E-01  0.00000000E+00  0.00000000E+00  0.00000000E+00  0.00000000E+00
  3.70598018E-08  0.00000000E+00  0.00000000E+00  0.00000000E+00  3.89473799E-06
  0.00000000E+00  0.00000000E+00  0.00000000E+00  2.35779127E-06  0.00000000E+00
  0.00000000E+00  0.00000000E+00 -1.30707612E-06  0.00000000E+00 -2.19637177E-01
  4.19619958E-01  0.00000000E+00  0.00000000E+00  0.00000000E+00  0.00000000E+00
  0.00000000E+00  0.00000000E+00  0.00000000E+00  3.04162140E-01  0.00000000E+00
  0.00000000E+00  0.00000000E+00  0.00000000E+00  0.00000000E+00 -3.04174661E-01
  6.75984137E-07 -3.64259685E-06  2.51509995E-06 -1.41052886E-01  2.69481559E-01
  1.59227676E-06 -6.75984137E-07  3.64259685E-06 -2.51509995E-06  1.41052886E-01
 -2.69481559E-01  1.59227676E-06 -8.68687752E-07 -1.84058586E-06  4.89037941E-07
 -4.55116836E-08  0.00000000E+00  1.95725147E-05  5.84379231E-06  4.62503425E-07
  0.00000000E+00 -6.95396269E-05  1.57880102E-08 -1.78265057E-06  0.00000000E+00
 -1.55742406E-05 -1.50604331E-06  3.00658904E-07  0.00000000E+00 -2.36818431E-01
  0.00000000E+00  0.00000000E+00  2.33771669E-01  3.37032023E-01  3.18588518E-07
  9.27619946E-06  1.55705124E-05  3.01464067E-01 -4.04222037E-02  0.00000000E+00
  1.43538457E-06  3.72869818E-06  1.91504539E-05  1.38603807E-01  2.70747372E-01
  0.00000000E+00 -3.32280482E-07  1.10384507E-05  1.20258824E-05 -2.20037468E-01