title                                                                   
Freq      RB3LYP                                                      6-311++G(d,p)       
Number of atoms                            I                2
Info1-9                                    I   N=           9
          11           9           0           0           0         100
           6          18        -502
Charge                                     I                0
Multiplicity                               I                1
Number of electrons                        I                2
Number of alpha electrons                  I                1
Number of beta electrons                   I                1
Number of basis functions                  I               14
Number of independent functions            I               14
Number of point charges in /Mol/           I                0
Number of translation vectors              I                0
Atomic numbers                             I   N=           2
           1           1
Nuclear charges                            R   N=           2
  1.00000000E+00  1.00000000E+00
Current cartesian coordinates              R   N=           6
  0.00000000E+00  0.00000000E+00  7.03202999E-01  8.61175302E-17  0.00000000E+00
 -7.03202999E-01
Force Field                                I                0
Int Atom Types                             I   N=           2
           0           0
MM charges                                 R   N=           2
  0.00000000E+00  0.00000000E+00
Integer atomic weights                     I   N=           2
           1           1
Real atomic weights                        R   N=           2
  1.00782504E+00  1.00782504E+00
Atom fragment info                         I   N=           2
           0           0
Atom residue num                           I   N=           2
           0           0
Nuclear spins                              I   N=           2
           1           1
Nuclear ZEff                               R   N=           2
 -1.00000000E+00 -1.00000000E+00
Nuclear QMom                               R   N=           2
  0.00000000E+00  0.00000000E+00
Nuclear GFac                               R   N=           2
  2.79284600E+00  2.79284600E+00
MicOpt                                     I   N=           2
          -1          -1
Number of contracted shells                I               10
Number of primitive shells                 I               14
Pure/Cartesian d shells                    I                0
Pure/Cartesian f shells                    I                0
Highest angular momentum                   I                1
Largest degree of contraction              I                3
Shell types                                I   N=          10
           0           0           0           0           1           0
           0           0           0           1
Number of primitives per shell             I   N=          10
           3           1           1           1           1           3
           1           1           1           1
Shell to atom map                          I   N=          10
           1           1           1           1           1           2
           2           2           2           2
Primitive exponents                        R   N=          14
  3.38650000E+01  5.09479000E+00  1.15879000E+00  3.25840000E-01  1.02741000E-01
  3.60000000E-02  7.50000000E-01  3.38650000E+01  5.09479000E+00  1.15879000E+00
  3.25840000E-01  1.02741000E-01  3.60000000E-02  7.50000000E-01
Contraction coefficients                   R   N=          14
  2.54938145E-02  1.90373109E-01  8.52161486E-01  1.00000000E+00  1.00000000E+00
  1.00000000E+00  1.00000000E+00  2.54938145E-02  1.90373109E-01  8.52161486E-01
  1.00000000E+00  1.00000000E+00  1.00000000E+00  1.00000000E+00
Coordinates of each shell                  R   N=          30
  0.00000000E+00  0.00000000E+00  7.03202999E-01  0.00000000E+00  0.00000000E+00
  7.03202999E-01  0.00000000E+00  0.00000000E+00  7.03202999E-01  0.00000000E+00
  0.00000000E+00  7.03202999E-01  0.00000000E+00  0.00000000E+00  7.03202999E-01
  8.61175302E-17  0.00000000E+00 -7.03202999E-01  8.61175302E-17  0.00000000E+00
 -7.03202999E-01  8.61175302E-17  0.00000000E+00 -7.03202999E-01  8.61175302E-17
  0.00000000E+00 -7.03202999E-01  8.61175302E-17  0.00000000E+00 -7.03202999E-01
Constraint Structure                       R   N=           6
  0.00000000E+00  0.00000000E+00  7.03202999E-01  8.61175302E-17  0.00000000E+00
 -7.03202999E-01
Num ILSW                                   I              100
ILSW                                       I   N=         100
           0           0           0           0           2           0
           0           0           0           0         402          -1
           0           0           0           0           0           0
           0           0           0           0           1           0
           1           0           0           0           0           0
           0           0      100000           0          -1           0
           0           0           0           0           0           0
           0           0           0           1           0           0
           0           0           1           0           0           0
           0           0           4          40           0           0
           0           0           5           0           0           0
           0           0           0           0           0           0
           0           0           0           0           0           0
           0           0           0           0           0           0
           0           0           0           0           0           0
           0           0           0           0           0           0
           0           0           0           0
Num RLSW                                   I               40
RLSW                                       R   N=          40
  8.00000000E-01  7.20000000E-01  1.00000000E+00  8.10000000E-01  2.00000000E-01
  0.00000000E+00  0.00000000E+00  1.00000000E+00  0.00000000E+00  0.00000000E+00
  0.00000000E+00  0.00000000E+00  1.00000000E+00  0.00000000E+00  0.00000000E+00
  0.00000000E+00  0.00000000E+00  1.00000000E+00  0.00000000E+00  0.00000000E+00
  0.00000000E+00  0.00000000E+00  1.00000000E+00  0.00000000E+00  0.00000000E+00
  0.00000000E+00  0.00000000E+00  1.00000000E+00  0.00000000E+00  0.00000000E+00
  0.00000000E+00  0.00000000E+00  0.00000000E+00  0.00000000E+00  0.00000000E+00
  0.00000000E+00  0.00000000E+00  0.00000000E+00  1.00000000E+00  1.00000000E+00
MxBond                                     I                1
NBond                                      I   N=           2
           1           1
IBond                                      I   N=           2
           2           1
RBond                                      R   N=           2
  1.00000000E+00  1.00000000E+00
Virial Ratio                               R      2.037872796042644E+00
SCF Energy                                 R     -1.179571528334374E+00
Total Energy                               R     -1.179571528334374E+00
RMS Force                                  R      3.489898987151686E-05
RMS Density                                R      3.496863891797992E-09
External E-field                           R   N=          35
  0.00000000E+00  0.00000000E+00  0.00000000E+00  0.00000000E+00  0.00000000E+00
  0.00000000E+00  0.00000000E+00  0.00000000E+00  0.00000000E+00  0.00000000E+00
  0.00000000E+00  0.00000000E+00  0.00000000E+00  0.00000000E+00  0.00000000E+00
  0.00000000E+00  0.00000000E+00  0.00000000E+00  0.00000000E+00  0.00000000E+00
  0.00000000E+00  0.00000000E+00  0.00000000E+00  0.00000000E+00  0.00000000E+00
  0.00000000E+00  0.00000000E+00  0.00000000E+00  0.00000000E+00  0.00000000E+00
  0.00000000E+00  0.00000000E+00  0.00000000E+00  0.00000000E+00  0.00000000E+00
IOpCl                                      I                0
IROHF                                      I                0
Alpha Orbital Energies                     R   N=          14
 -4.33898478E-01  2.01790636E-02  3.17857060E-02  1.43971679E-01  3.45129446E-01
  5.62580850E-01  1.08464254E+00  1.08464254E+00  1.61108200E+00  1.82671108E+00
  1.82671108E+00  2.04807866E+00  2.48637758E+00  3.31093738E+00
Alpha MO coefficients                      R   N=         196
  1.96884463E-01  2.72643412E-01  1.43638543E-01 -7.45686010E-04  0.00000000E+00
  0.00000000E+00 -1.89413601E-02  1.96884463E-01  2.72643412E-01  1.43638543E-01
 -7.45686010E-04  0.00000000E+00  0.00000000E+00  1.89413601E-02  4.97480179E-02
  1.93678426E-01  3.34449700E-01  3.05646600E+00  0.00000000E+00  0.00000000E+00
  8.46807588E-03 -4.97480179E-02 -1.93678426E-01 -3.34449700E-01 -3.05646600E+00
  0.00000000E+00  0.00000000E+00  8.46807588E-03 -6.50464521E-02 -4.78128934E-02
 -4.12241264E-01  7.79626334E-01  0.00000000E+00  0.00000000E+00  1.34185896E-02
 -6.50464521E-02 -4.78128934E-02 -4.12241264E-01  7.79626334E-01  0.00000000E+00
  0.00000000E+00 -1.34185896E-02 -9.86879929E-02 -1.76653330E-02 -2.88677032E+00
  4.50871675E+00  0.00000000E+00  0.00000000E+00 -6.14851179E-02  9.86879929E-02
  1.76653330E-02  2.88677032E+00 -4.50871675E+00  0.00000000E+00  0.00000000E+00
 -6.14851179E-02 -7.73347677E-02 -8.42811116E-01  1.50845908E+00 -7.32196947E-01
  0.00000000E+00  0.00000000E+00  1.20962412E-02 -7.73347677E-02 -8.42811116E-01
  1.50845908E+00 -7.32196947E-01  0.00000000E+00  0.00000000E+00 -1.20962412E-02
 -1.34348803E-01 -2.03203503E+00  3.95215039E+00 -2.75377013E+00  0.00000000E+00
  0.00000000E+00  1.27037804E-01  1.34348803E-01  2.03203503E+00 -3.95215039E+00
  2.75377013E+00  0.00000000E+00  0.00000000E+00  1.27037804E-01  0.00000000E+00
  0.00000000E+00  0.00000000E+00  0.00000000E+00  0.00000000E+00  5.81969328E-01
  0.00000000E+00  0.00000000E+00  0.00000000E+00  0.00000000E+00  0.00000000E+00
  0.00000000E+00  5.81969328E-01  0.00000000E+00  0.00000000E+00  0.00000000E+00
  0.00000000E+00  0.00000000E+00  5.81969328E-01  0.00000000E+00  0.00000000E+00
  0.00000000E+00  0.00000000E+00  0.00000000E+00  0.00000000E+00  5.81969328E-01
  0.00000000E+00  0.00000000E+00 -2.44846934E-01  8.08171849E-01 -6.45143345E-01
  2.15856171E-01  0.00000000E+00  0.00000000E+00  6.35797735E-01 -2.44846934E-01
  8.08171849E-01 -6.45143345E-01  2.15856171E-01  0.00000000E+00  0.00000000E+00
 -6.35797735E-01  0.00000000E+00  0.00000000E+00  0.00000000E+00  0.00000000E+00
  0.00000000E+00  9.77095332E-01  0.00000000E+00  0.00000000E+00  0.00000000E+00
  0.00000000E+00  0.00000000E+00  0.00000000E+00 -9.77095332E-01  0.00000000E+00
  0.00000000E+00  0.00000000E+00  0.00000000E+00  0.00000000E+00  9.77095332E-01
  0.00000000E+00  0.00000000E+00  0.00000000E+00  0.00000000E+00  0.00000000E+00
  0.00000000E+00 -9.77095332E-01  0.00000000E+00  0.00000000E+00 -6.39735700E-01
  3.84683430E+00 -2.71447420E+00  1.48552231E+00  0.00000000E+00  0.00000000E+00
 -1.38683988E+00  6.39735700E-01 -3.84683430E+00  2.71447420E+00 -1.48552231E+00
  0.00000000E+00  0.00000000E+00 -1.38683988E+00 -1.14546903E+00  1.24712950E+00
 -7.41544640E-01  2.52513394E-01  0.00000000E+00  0.00000000E+00 -3.39711677E-01
 -1.14546903E+00  1.24712950E+00 -7.41544640E-01  2.52513394E-01  0.00000000E+00
  0.00000000E+00  3.39711677E-01 -1.07076447E+00 -1.81049442E+00  3.20680302E-01
 -6.00132084E-02  0.00000000E+00  0.00000000E+00  1.92572915E+00  1.07076447E+00
  1.81049442E+00 -3.20680302E-01  6.00132084E-02  0.00000000E+00  0.00000000E+00
  1.92572915E+00
Total SCF Density                          R   N=         105
  7.75269832E-02  1.07358503E-01  1.48668860E-01  5.65603945E-02  7.83242047E-02
  4.12640618E-02 -2.93627979E-04 -4.06612756E-04 -2.14218503E-04  1.11209525E-06
 -1.14175643E-19 -1.58109159E-19 -8.32977002E-20  4.32432191E-22  1.34519125E-36
 -1.14175643E-19 -1.58109159E-19 -8.32977002E-20  4.32432191E-22  8.23692080E-53
  1.34519125E-36 -7.45851901E-03 -1.03284741E-02 -5.44141872E-03  2.82486145E-05
  1.09843201E-20  1.09843201E-20  7.17550246E-04  7.75269832E-02  1.07358503E-01
  5.65603945E-02 -2.93627979E-04 -1.14175643E-19 -1.14175643E-19 -7.45851901E-03
  7.75269832E-02  1.07358503E-01  1.48668860E-01  7.83242047E-02 -4.06612756E-04
 -1.58109159E-19 -1.58109159E-19 -1.03284741E-02  1.07358503E-01  1.48668860E-01
  5.65603945E-02  7.83242047E-02  4.12640618E-02 -2.14218503E-04 -8.32977002E-20
 -8.32977002E-20 -5.44141872E-03  5.65603945E-02  7.83242047E-02  4.12640618E-02
 -2.93627979E-04 -4.06612756E-04 -2.14218503E-04  1.11209525E-06  4.32432191E-22
  4.32432191E-22  2.82486145E-05 -2.93627979E-04 -4.06612756E-04 -2.14218503E-04
  1.11209525E-06  1.14175643E-19  1.58109159E-19  8.32977002E-20 -4.32432191E-22
 -1.34519125E-36 -8.23692080E-53 -1.09843201E-20  1.14175643E-19  1.58109159E-19
  8.32977002E-20 -4.32432191E-22  1.34519125E-36  1.14175643E-19  1.58109159E-19
  8.32977002E-20 -4.32432191E-22 -8.23692080E-53 -1.34519125E-36 -1.09843201E-20
  1.14175643E-19  1.58109159E-19  8.32977002E-20 -4.32432191E-22  8.23692080E-53
  1.34519125E-36  7.45851901E-03  1.03284741E-02  5.44141872E-03 -2.82486145E-05
 -1.09843201E-20 -1.09843201E-20 -7.17550246E-04  7.45851901E-03  1.03284741E-02
  5.44141872E-03 -2.82486145E-05  1.09843201E-20  1.09843201E-20  7.17550246E-04
QEq coupling tensors                       R   N=          12
  1.73720568E-01  0.00000000E+00  1.73720568E-01  3.31401365E-17  0.00000000E+00
 -3.47441137E-01  1.73720568E-01  0.00000000E+00  1.73720568E-01  1.95492498E-17
  0.00000000E+00 -3.47441137E-01
Mulliken Charges                           R   N=           2
  2.27595720E-15  2.22044605E-15
ONIOM Charges                              I   N=          16
           0           0           0           0           0           0
           0           0           0           0           0           0
           0           0           0           0
ONIOM Multiplicities                       I   N=          16
           1           0           0           0           0           0
           0           0           0           0           0           0
           0           0           0           0
Atom Layers                                I   N=           2
           1           1
Atom Modifiers                             I   N=           2
           0           0
Force Field                                I                0
Int Atom Modified Types                    I   N=           2
           0           0
Link Atoms                                 I   N=           2
           0           0
Atom Modified MM Charges                   R   N=           2
  0.00000000E+00  0.00000000E+00
Link Distances                             R   N=           8
  0.00000000E+00  0.00000000E+00  0.00000000E+00  0.00000000E+00  0.00000000E+00
  0.00000000E+00  0.00000000E+00  0.00000000E+00
Cartesian Gradient                         R   N=           6
 -2.69867406E-17 -5.22728855E-19  6.04468236E-05  2.69867406E-17  5.22728855E-19
 -6.04468236E-05
Cartesian Force Constants                  R   N=          21
  3.93595255E-05  5.06348827E-22  3.93595241E-05  5.72987801E-13 -2.20249793E-12
  3.72034652E-01 -3.93595255E-05 -2.70752665E-22 -5.72986459E-13  3.93595255E-05
  2.70752395E-22 -3.93595241E-05 -1.91671443E-12 -5.06348557E-22  3.93595241E-05
 -5.72986459E-13  1.91669255E-12 -3.72034652E-01  5.72985117E-13  2.20251982E-12
  3.72034652E-01
Dipole Moment                              R   N=           3
  1.72563323E-31  2.40741243E-35 -4.68375339E-17
Dipole Derivatives                         R   N=          18
 -1.34824335E-14 -2.79230180E-21 -8.03426663E-12  5.12586869E-21 -3.45969184E-14
 -3.81464828E-11  1.70629244E-12 -2.56742533E-12  6.30603370E-10 -1.28293101E-14
  2.79230211E-21 -7.51765241E-12 -5.12586401E-21 -3.47669213E-14  3.81464828E-11
  1.65208227E-12  2.56742533E-12  5.14061480E-10
Polarizability                             R   N=           6
  1.09638551E+00  1.15304539E-21  1.09638551E+00 -2.73770882E-12  1.14481280E-12
  6.91241895E+00
