geo opt and freq calc of ethanol                                        
Freq      RB3LYP                                                      6-311+G(d,p)        
Number of atoms                            I                9
Charge                                     I                0
Multiplicity                               I                1
Number of electrons                        I               26
Number of alpha electrons                  I               13
Number of beta electrons                   I               13
Number of basis functions                  I              102
Number of independant functions            I              102
Number of point charges in /Mol/           I                0
Number of translation vectors              I                0
Info1-9                                    I   N=           9
          17          16        1002           0           0         100
           6          18        -501
Num ILSW                                   I              100
ILSW                                       I   N=         100
           0           0           0           0           2           0
           0           0           0           0         402      200000
           0           0           0           0           0           0
           0      800000           0           0           1           0
           1           0           0           0     1000000           0
           0           0      100000           0          -1           0
           0           0           0           0           0           0
           0           0           0           1           0           0
           0           0           1      720000      810000           0
           0           0           0           0           0           0
           0           0           0           0           0           0
           0           0           0           0           0           0
           0           0           0           0           0           0
           0           0           0           0           0           0
           0           0           0           0           0           0
           0           0           0           0           0           0
           0           0           0           0
Number of contracted shells                I               42
Highest angular momentum                   I                2
Largest degree of contraction              I                6
Number of primitive shells                 I               75
Pure/Cartesian d shells                    I                0
Pure/Cartesian f shells                    I                0
Virial Ratio                               R      2.004190080287062E+00
SCF Energy                                 R     -1.550950562743548E+02
Total Energy                               R     -1.550950562743548E+02
RMS Force                                  R      1.413982333089842E-04
RMS Density                                R      2.105593382165790E-09
Atomic numbers                             I   N=           9
           6           6           1           1           1           1
           8           1           1
Nuclear charges                            R   N=           9
  6.00000000E+00  6.00000000E+00  1.00000000E+00  1.00000000E+00  1.00000000E+00
  1.00000000E+00  8.00000000E+00  1.00000000E+00  1.00000000E+00
Current cartesian coordinates              R   N=          27
  2.31277610E+00 -4.22065071E-01 -2.94637287E-16 -1.54634060E-01  1.03740614E+00
  1.43350850E-16  2.44353032E+00 -1.62433605E+00  1.67354479E+00  2.44352992E+00
 -1.62433681E+00 -1.67354423E+00  3.92004855E+00  8.77694458E-01 -4.44416000E-07
 -2.62286019E-01  2.25683986E+00 -1.67686893E+00 -2.18359437E+00 -7.48331300E-01
 -1.90285084E-08 -2.62286140E-01  2.25683999E+00  1.67686881E+00 -3.76263392E+00
  1.51902533E-01  1.43659175E-07
Int Atom Types                             I   N=           9
           0           0           0           0           0           0
           0           0           0
Force Field                                I                0
MM charges                                 R   N=           9
  0.00000000E+00  0.00000000E+00  0.00000000E+00  0.00000000E+00  0.00000000E+00
  0.00000000E+00  0.00000000E+00  0.00000000E+00  0.00000000E+00
Integer atomic weights                     I   N=           9
          12          12           1           1           1           1
          16           1           1
Real atomic weights                        R   N=           9
  1.20000000E+01  1.20000000E+01  1.00782504E+00  1.00782504E+00  1.00782504E+00
  1.00782504E+00  1.59949146E+01  1.00782504E+00  1.00782504E+00
Atom residue info                          I   N=           9
           0           0           0           0           0           0
           0           0           0
Atom fragment info                         I   N=           9
           0           0           0           0           0           0
           0           0           0
Atom residue num                           I   N=           9
           0           0           0           0           0           0
           0           0           0
Nuclear spins                              I   N=           9
           0           0           1           1           1           1
           0           1           1
Nuclear ZEff                               R   N=           9
 -3.60000000E+00 -3.60000000E+00 -1.00000000E+00 -1.00000000E+00 -1.00000000E+00
 -1.00000000E+00 -5.60000000E+00 -1.00000000E+00 -1.00000000E+00
Nuclear QMom                               R   N=           9
  0.00000000E+00  0.00000000E+00  0.00000000E+00  0.00000000E+00  0.00000000E+00
  0.00000000E+00  0.00000000E+00  0.00000000E+00  0.00000000E+00
Nuclear GFac                               R   N=           9
  0.00000000E+00  0.00000000E+00  2.79284600E+00  2.79284600E+00  2.79284600E+00
  2.79284600E+00  0.00000000E+00  2.79284600E+00  2.79284600E+00
MicOpt                                     I   N=           9
          -1          -1          -1          -1          -1          -1
          -1          -1          -1
Constraint Structure                       R   N=          27
  2.31277610E+00 -4.22065071E-01 -2.94637287E-16 -1.54634060E-01  1.03740614E+00
  1.43350850E-16  2.44353032E+00 -1.62433605E+00  1.67354479E+00  2.44352992E+00
 -1.62433681E+00 -1.67354423E+00  3.92004855E+00  8.77694458E-01 -4.44416000E-07
 -2.62286019E-01  2.25683986E+00 -1.67686893E+00 -2.18359437E+00 -7.48331300E-01
 -1.90285084E-08 -2.62286140E-01  2.25683999E+00  1.67686881E+00 -3.76263392E+00
  1.51902533E-01  1.43659175E-07
ONIOM Charges                              I   N=          16
           0           0           0           0           0           0
           0           0           0           0           0           0
           0           0           0           0
ONIOM Multiplicities                       I   N=          16
           1           0           0           0           0           0
           0           0           0           0           0           0
           0           0           0           0
Atom Layers                                I   N=           9
           0           0           0           0           0           0
           0           0           0
Atom Modifiers                             I   N=           9
           0           0           0           0           0           0
           0           0           0
Int Atom Modified Types                    I   N=           9
           0           0           0           0           0           0
           0           0           0
Link Atoms                                 I   N=           9
           0           0           0           0           0           0
           0           0           0
Atom Modified MM Charges                   R   N=           9
  0.00000000E+00  0.00000000E+00  0.00000000E+00  0.00000000E+00  0.00000000E+00
  0.00000000E+00  0.00000000E+00  0.00000000E+00  0.00000000E+00
Link Distances                             R   N=          36
  0.00000000E+00  0.00000000E+00  0.00000000E+00  0.00000000E+00  0.00000000E+00
  0.00000000E+00  0.00000000E+00  0.00000000E+00  0.00000000E+00  0.00000000E+00
  0.00000000E+00  0.00000000E+00  0.00000000E+00  0.00000000E+00  0.00000000E+00
  0.00000000E+00  0.00000000E+00  0.00000000E+00  0.00000000E+00  0.00000000E+00
  0.00000000E+00  0.00000000E+00  0.00000000E+00  0.00000000E+00  0.00000000E+00
  0.00000000E+00  0.00000000E+00  0.00000000E+00  0.00000000E+00  0.00000000E+00
  0.00000000E+00  0.00000000E+00  0.00000000E+00  0.00000000E+00  0.00000000E+00
  0.00000000E+00
MxBond                                     I                4
NBond                                      I   N=           9
           4           4           1           1           1           1
           2           1           1
IBond                                      I   N=          36
           2           3           4           5           1           6
           7           8           1           0           0           0
           1           0           0           0           1           0
           0           0           2           0           0           0
           2           9           0           0           2           0
           0           0           7           0           0           0
RBond                                      R   N=          36
  1.00000000E+00  1.00000000E+00  1.00000000E+00  1.00000000E+00  1.00000000E+00
  1.00000000E+00  1.00000000E+00  1.00000000E+00  1.00000000E+00  0.00000000E+00
  0.00000000E+00  0.00000000E+00  1.00000000E+00  0.00000000E+00  0.00000000E+00
  0.00000000E+00  1.00000000E+00  0.00000000E+00  0.00000000E+00  0.00000000E+00
  1.00000000E+00  0.00000000E+00  0.00000000E+00  0.00000000E+00  1.00000000E+00
  1.00000000E+00  0.00000000E+00  0.00000000E+00  1.00000000E+00  0.00000000E+00
  0.00000000E+00  0.00000000E+00  1.00000000E+00  0.00000000E+00  0.00000000E+00
  0.00000000E+00
Shell types                                I   N=          42
           0          -1          -1          -1          -1          -2
           0          -1          -1          -1          -1          -2
           0           0           0           1           0           0
           0           1           0           0           0           1
           0           0           0           1           0          -1
          -1          -1          -1          -2           0           0
           0           1           0           0           0           1
Number of primitives per shell             I   N=          42
           6           3           1           1           1           1
           6           3           1           1           1           1
           3           1           1           1           3           1
           1           1           3           1           1           1
           3           1           1           1           6           3
           1           1           1           1           3           1
           1           1           3           1           1           1
Shell to atom map                          I   N=          42
           1           1           1           1           1           1
           2           2           2           2           2           2
           3           3           3           3           4           4
           4           4           5           5           5           5
           6           6           6           6           7           7
           7           7           7           7           8           8
           8           8           9           9           9           9
Primitive exponents                        R   N=          75
  4.56324000E+03  6.82024000E+02  1.54973000E+02  4.44553000E+01  1.30290000E+01
  1.82773000E+00  2.09642000E+01  4.80331000E+00  1.45933000E+00  4.83456000E-01
  1.45585000E-01  4.38000000E-02  6.26000000E-01  4.56324000E+03  6.82024000E+02
  1.54973000E+02  4.44553000E+01  1.30290000E+01  1.82773000E+00  2.09642000E+01
  4.80331000E+00  1.45933000E+00  4.83456000E-01  1.45585000E-01  4.38000000E-02
  6.26000000E-01  3.38650000E+01  5.09479000E+00  1.15879000E+00  3.25840000E-01
  1.02741000E-01  7.50000000E-01  3.38650000E+01  5.09479000E+00  1.15879000E+00
  3.25840000E-01  1.02741000E-01  7.50000000E-01  3.38650000E+01  5.09479000E+00
  1.15879000E+00  3.25840000E-01  1.02741000E-01  7.50000000E-01  3.38650000E+01
  5.09479000E+00  1.15879000E+00  3.25840000E-01  1.02741000E-01  7.50000000E-01
  8.58850000E+03  1.29723000E+03  2.99296000E+02  8.73771000E+01  2.56789000E+01
  3.74004000E+00  4.21175000E+01  9.62837000E+00  2.85332000E+00  9.05661000E-01
  2.55611000E-01  8.45000000E-02  1.29200000E+00  3.38650000E+01  5.09479000E+00
  1.15879000E+00  3.25840000E-01  1.02741000E-01  7.50000000E-01  3.38650000E+01
  5.09479000E+00  1.15879000E+00  3.25840000E-01  1.02741000E-01  7.50000000E-01
Contraction coefficients                   R   N=          75
  1.96665025E-03  1.52306019E-02  7.61269097E-02  2.60801033E-01  6.16462078E-01
  2.21006028E-01  1.14660081E-01  9.19999648E-01 -3.03068213E-03  1.00000000E+00
  1.00000000E+00  1.00000000E+00  1.00000000E+00  1.96665025E-03  1.52306019E-02
  7.61269097E-02  2.60801033E-01  6.16462078E-01  2.21006028E-01  1.14660081E-01
  9.19999648E-01 -3.03068213E-03  1.00000000E+00  1.00000000E+00  1.00000000E+00
  1.00000000E+00  2.54938145E-02  1.90373109E-01  8.52161486E-01  1.00000000E+00
  1.00000000E+00  1.00000000E+00  2.54938145E-02  1.90373109E-01  8.52161486E-01
  1.00000000E+00  1.00000000E+00  1.00000000E+00  2.54938145E-02  1.90373109E-01
  8.52161486E-01  1.00000000E+00  1.00000000E+00  1.00000000E+00  2.54938145E-02
  1.90373109E-01  8.52161486E-01  1.00000000E+00  1.00000000E+00  1.00000000E+00
  1.89515008E-03  1.43859006E-02  7.07320031E-02  2.40001011E-01  5.94797026E-01
  2.80802012E-01  1.13889012E-01  9.20811101E-01 -3.27447036E-03  1.00000000E+00
  1.00000000E+00  1.00000000E+00  1.00000000E+00  2.54938145E-02  1.90373109E-01
  8.52161486E-01  1.00000000E+00  1.00000000E+00  1.00000000E+00  2.54938145E-02
  1.90373109E-01  8.52161486E-01  1.00000000E+00  1.00000000E+00  1.00000000E+00
P(S=P) Contraction coefficients            R   N=          75
  0.00000000E+00  0.00000000E+00  0.00000000E+00  0.00000000E+00  0.00000000E+00
  0.00000000E+00  4.02486927E-02  2.37593957E-01  8.15853851E-01  1.00000000E+00
  1.00000000E+00  1.00000000E+00  0.00000000E+00  0.00000000E+00  0.00000000E+00
  0.00000000E+00  0.00000000E+00  0.00000000E+00  0.00000000E+00  4.02486927E-02
  2.37593957E-01  8.15853851E-01  1.00000000E+00  1.00000000E+00  1.00000000E+00
  0.00000000E+00  0.00000000E+00  0.00000000E+00  0.00000000E+00  0.00000000E+00
  0.00000000E+00  0.00000000E+00  0.00000000E+00  0.00000000E+00  0.00000000E+00
  0.00000000E+00  0.00000000E+00  0.00000000E+00  0.00000000E+00  0.00000000E+00
  0.00000000E+00  0.00000000E+00  0.00000000E+00  0.00000000E+00  0.00000000E+00
  0.00000000E+00  0.00000000E+00  0.00000000E+00  0.00000000E+00  0.00000000E+00
  0.00000000E+00  0.00000000E+00  0.00000000E+00  0.00000000E+00  0.00000000E+00
  0.00000000E+00  3.65113974E-02  2.37152983E-01  8.19701941E-01  1.00000000E+00
  1.00000000E+00  1.00000000E+00  0.00000000E+00  0.00000000E+00  0.00000000E+00
  0.00000000E+00  0.00000000E+00  0.00000000E+00  0.00000000E+00  0.00000000E+00
  0.00000000E+00  0.00000000E+00  0.00000000E+00  0.00000000E+00  0.00000000E+00
Coordinates of each shell                  R   N=         126
  2.31277610E+00 -4.22065071E-01 -2.94637287E-16  2.31277610E+00 -4.22065071E-01
 -2.94637287E-16  2.31277610E+00 -4.22065071E-01 -2.94637287E-16  2.31277610E+00
 -4.22065071E-01 -2.94637287E-16  2.31277610E+00 -4.22065071E-01 -2.94637287E-16
  2.31277610E+00 -4.22065071E-01 -2.94637287E-16 -1.54634060E-01  1.03740614E+00
  1.43350850E-16 -1.54634060E-01  1.03740614E+00  1.43350850E-16 -1.54634060E-01
  1.03740614E+00  1.43350850E-16 -1.54634060E-01  1.03740614E+00  1.43350850E-16
 -1.54634060E-01  1.03740614E+00  1.43350850E-16 -1.54634060E-01  1.03740614E+00
  1.43350850E-16  2.44353032E+00 -1.62433605E+00  1.67354479E+00  2.44353032E+00
 -1.62433605E+00  1.67354479E+00  2.44353032E+00 -1.62433605E+00  1.67354479E+00
  2.44353032E+00 -1.62433605E+00  1.67354479E+00  2.44352992E+00 -1.62433681E+00
 -1.67354423E+00  2.44352992E+00 -1.62433681E+00 -1.67354423E+00  2.44352992E+00
 -1.62433681E+00 -1.67354423E+00  2.44352992E+00 -1.62433681E+00 -1.67354423E+00
  3.92004855E+00  8.77694458E-01 -4.44416000E-07  3.92004855E+00  8.77694458E-01
 -4.44416000E-07  3.92004855E+00  8.77694458E-01 -4.44416000E-07  3.92004855E+00
  8.77694458E-01 -4.44416000E-07 -2.62286019E-01  2.25683986E+00 -1.67686893E+00
 -2.62286019E-01  2.25683986E+00 -1.67686893E+00 -2.62286019E-01  2.25683986E+00
 -1.67686893E+00 -2.62286019E-01  2.25683986E+00 -1.67686893E+00 -2.18359437E+00
 -7.48331300E-01 -1.90285084E-08 -2.18359437E+00 -7.48331300E-01 -1.90285084E-08
 -2.18359437E+00 -7.48331300E-01 -1.90285084E-08 -2.18359437E+00 -7.48331300E-01
 -1.90285084E-08 -2.18359437E+00 -7.48331300E-01 -1.90285084E-08 -2.18359437E+00
 -7.48331300E-01 -1.90285084E-08 -2.62286140E-01  2.25683999E+00  1.67686881E+00
 -2.62286140E-01  2.25683999E+00  1.67686881E+00 -2.62286140E-01  2.25683999E+00
  1.67686881E+00 -2.62286140E-01  2.25683999E+00  1.67686881E+00 -3.76263392E+00
  1.51902533E-01  1.43659175E-07 -3.76263392E+00  1.51902533E-01  1.43659175E-07
 -3.76263392E+00  1.51902533E-01  1.43659175E-07 -3.76263392E+00  1.51902533E-01
  1.43659175E-07
Alpha Orbital Energies                     R   N=         102
 -1.91239253E+01 -1.02201112E+01 -1.01607602E+01 -1.02405072E+00 -7.53967478E-01
 -6.16080673E-01 -5.23384025E-01 -4.70259556E-01 -4.07791389E-01 -3.88040718E-01
 -3.70351317E-01 -3.39089585E-01 -2.80543654E-01 -1.70934709E-03  2.13554181E-02
  3.62415109E-02  4.36562765E-02  6.91368274E-02  7.73148447E-02  8.06459349E-02
  1.24316559E-01  1.41092581E-01  1.54485006E-01  1.65582770E-01  1.77739238E-01
  1.77743458E-01  2.10564302E-01  2.26513951E-01  2.40375266E-01  2.42500330E-01
  2.52076642E-01  3.03575580E-01  3.39842855E-01  4.03745420E-01  4.24916324E-01
  4.54104467E-01  4.72977065E-01  5.11971838E-01  5.41657770E-01  6.05916119E-01
  6.09385322E-01  6.22841011E-01  6.29137582E-01  6.74095698E-01  7.05548059E-01
  8.44090690E-01  9.27861430E-01  9.48973520E-01  9.76834797E-01  1.04744484E+00
  1.11209228E+00  1.18758695E+00  1.25227109E+00  1.35705717E+00  1.36451550E+00
  1.45526742E+00  1.45970006E+00  1.52833046E+00  1.53949593E+00  1.54430164E+00
  1.56167521E+00  1.62407944E+00  1.64372197E+00  1.68443955E+00  1.72751962E+00
  1.75955286E+00  1.83308012E+00  1.97225335E+00  2.01219890E+00  2.03087675E+00
  2.10186975E+00  2.17391802E+00  2.24486092E+00  2.32371752E+00  2.42853996E+00
  2.44781603E+00  2.47025093E+00  2.52588238E+00  2.54565298E+00  2.57509215E+00
  2.59482802E+00  2.61326167E+00  2.62804081E+00  2.77137551E+00  2.83727901E+00
  2.91139127E+00  3.09114366E+00  3.19180786E+00  3.20948252E+00  3.30799565E+00
  3.79148966E+00  3.79852904E+00  3.81329587E+00  3.87141333E+00  3.96421690E+00
  4.22752253E+00  4.99629467E+00  5.35289754E+00  5.64830244E+00  2.38158017E+01
  2.39574963E+01  4.98947170E+01
Alpha MO coefficients                      R   N=       10404
  3.58852351E-07  2.56322240E-06 -3.18928926E-05  3.95243167E-05 -6.24644055E-12
  3.67741713E-05  2.46420673E-04 -2.08639390E-04  4.26947855E-11 -1.50948932E-03
  8.32913585E-04 -3.65977618E-04  8.84966688E-11  9.09107647E-03 -2.28413513E-03
  8.22575537E-04 -4.98181525E-11  9.51798869E-06  1.45792796E-12  2.85390524E-11
 -7.23121725E-05  1.17551488E-04  1.71239628E-05 -6.60794032E-05 -7.71772562E-05
 -1.59857058E-04  9.13733995E-12  9.93828660E-05 -3.10891018E-04  2.63608148E-04
 -5.20940960E-11  4.20220691E-03 -4.59397116E-05 -1.40264860E-03 -1.78486720E-10
 -1.13901611E-02 -1.10705535E-03  2.71857452E-03  6.89502427E-11  1.56830209E-04
 -3.34981260E-11 -7.69389593E-12 -1.83816708E-05 -1.80185819E-04  4.64794835E-05
 -1.48878586E-04 -3.27821203E-04  1.02864428E-04 -4.00769411E-05  8.31231827E-05
  4.64794157E-05 -1.48878510E-04 -3.27821235E-04  1.02864420E-04 -4.00769768E-05
 -8.31231800E-05 -5.26549253E-05  1.50214792E-04 -3.63289199E-04 -1.73619873E-05
  4.50207442E-05 -3.48862537E-11  5.14421368E-05 -1.08520574E-03  2.89053407E-04
  7.79211334E-05  2.68453746E-04 -1.81636882E-04  5.51330345E-01  4.69753523E-01
 -1.71731714E-04  1.30865075E-03  1.20772395E-10  1.34309258E-02 -1.26295064E-04
  3.05555901E-05  2.63339911E-12 -8.87199629E-03 -1.24367026E-03 -7.97170510E-04
  3.92432214E-11  7.06655550E-03 -5.10228790E-05  8.02187933E-04  5.78143189E-11
 -1.22924840E-04 -3.28045523E-11  2.01602407E-11  1.43539243E-04 -2.10140856E-04
  5.14421138E-05 -1.08520554E-03  2.89053416E-04  7.79211226E-05  2.68453724E-04
  1.81636852E-04 -5.78794761E-06 -9.90349517E-05 -1.72441141E-03 -6.79698633E-04
  5.19365739E-04  8.22942756E-11  1.13142312E-03  9.14703623E-04 -4.66550488E-04
  3.13699243E-04  8.73005816E-13  3.36010922E-04  1.31525077E-03 -8.46020499E-04
 -5.05628986E-11  3.40443082E-03 -1.26650190E-03  6.61704326E-04 -1.36590394E-10
  6.73022707E-03 -1.49929617E-03  1.01141456E-03 -5.38410657E-12  4.49106235E-04
 -3.44248746E-11  3.81917852E-11 -3.11510782E-04  8.54412498E-04  5.63071226E-01
  4.63311734E-01 -6.50187531E-04 -7.43563058E-04  4.36695612E-11  1.83552978E-02
  5.23590316E-04  2.23519994E-03 -3.82928983E-11 -1.31399871E-02  1.02392018E-04
  1.73559960E-03  2.04398753E-10 -1.08287134E-02 -1.15962279E-03  6.73042988E-04
  5.82329027E-11  9.23623534E-04 -1.21117112E-10  1.14025706E-10 -5.26989878E-04
 -5.03128671E-04 -7.84889283E-05 -7.37296133E-04  1.41539325E-04 -5.71334611E-05
 -1.37460322E-04  2.74042438E-04 -7.84889393E-05 -7.37296321E-04  1.41539251E-04
 -5.71335150E-05 -1.37460496E-04 -2.74042411E-04 -5.16790673E-05 -9.36696070E-04
  1.70320240E-04  2.71429603E-04  2.92862784E-04 -7.55865837E-11  8.24966966E-05
 -3.01299537E-03  3.52648385E-03 -1.39335855E-04  1.13366166E-03 -1.85474122E-03
 -2.39774689E-05 -7.18578030E-05  8.60423622E-05  1.05848817E-04  1.09082963E-12
  5.42615808E-04  1.14293829E-04 -3.17392585E-05 -1.72847340E-12 -4.40091725E-04
  4.85859049E-04 -1.64780110E-04 -5.31747308E-11  7.35467314E-03  5.93406727E-04
  2.01113152E-03  6.80465130E-11  1.58495686E-04  9.64401547E-12 -1.53607456E-11
 -2.16667047E-05 -1.25784568E-04  8.24966811E-05 -3.01299570E-03  3.52648387E-03
 -1.39335951E-04  1.13366186E-03  1.85474121E-03 -4.05823372E-06  4.54884719E-04
 -1.91789587E-03  2.70977902E-04 -2.62056816E-05 -9.75973410E-12  5.62946062E-01
  4.63186829E-01 -1.38489367E-04  1.86705479E-04 -1.70784964E-11  1.92420876E-02
  1.34452819E-03 -9.07806410E-04 -1.86630182E-10 -9.93783032E-03  1.18988488E-03
 -1.57163247E-04 -1.56738822E-10 -1.27748175E-02  1.87826675E-03 -7.72600799E-04
  9.13933384E-12  3.36454245E-04  1.03250057E-12  1.92278721E-10 -2.96138858E-04
  5.52868205E-04 -1.15258590E-03 -9.67030396E-04  4.42153473E-04 -2.93868933E-04
 -7.91170867E-12  2.60519933E-04 -9.73273448E-04  8.67384430E-04  5.83345857E-11
  2.65697026E-03  9.33761410E-04 -6.15514711E-04  5.97425902E-11  8.84881244E-03
  1.95015339E-03 -1.45257603E-03 -1.16694225E-10  5.05370007E-04 -9.95741731E-12
  2.92306792E-11 -3.92662160E-04  5.44749459E-04  2.05585730E-04 -3.16296881E-03
  4.19919985E-03 -3.44812151E-06 -1.18577807E-03  1.72152688E-03  2.05585647E-04
 -3.16296932E-03  4.19920001E-03 -3.44849308E-06 -1.18577903E-03 -1.72152656E-03
  2.41782490E-04 -3.37803261E-03  3.85013232E-03  1.54853550E-03  1.43285753E-03
 -4.74410312E-10 -6.03526383E-05 -7.62618669E-04  3.60278148E-04  2.63075674E-05
  1.48958046E-04 -2.80406815E-04  1.92294386E-06  6.54946530E-06  1.47606914E-05
  2.26669859E-05 -6.63406905E-12  3.82485821E-05 -5.87352725E-05 -8.12002606E-05
  2.34938870E-11 -7.67188987E-04  1.74444821E-04 -2.85536597E-04 -9.01373558E-11
 -1.05055130E-03  8.90495210E-04 -5.48268339E-04  4.96229359E-11  3.14136998E-05
  7.92351963E-12 -1.10624962E-11  9.55507067E-06 -2.49604455E-05 -6.03526352E-05
 -7.62618833E-04  3.60278224E-04  2.63075049E-05  1.48958142E-04  2.80406835E-04
 -1.47180893E-05  4.21711713E-04  1.37610542E-03  1.39777480E-04 -5.70002372E-05
 -2.30227962E-11 -8.59166416E-03 -1.31892978E-02 -8.35112337E-03  1.55762925E-03
 -1.20075521E-10  3.23571270E-02 -1.81836653E-02  5.44372757E-03  5.21925194E-11
  3.18758606E-02 -1.15324086E-02  3.72388965E-03  1.00559391E-10 -7.53139702E-02
  1.99453683E-02 -7.33034068E-03  4.31244317E-10 -1.93742242E-03  1.55891484E-10
 -6.67008378E-11  3.41045374E-03 -3.34082298E-03 -4.08586366E-02 -6.28839614E-02
 -3.45044082E-02 -2.78135489E-02 -1.34120198E-10  1.63203920E-01 -5.65380185E-02
 -5.11088263E-02  5.40227029E-10  3.36536023E-02 -1.45868257E-02  4.33036343E-03
  1.35439584E-09  1.03282473E-01  7.68862572E-03 -2.11563740E-02 -4.08625485E-10
 -1.34537919E-02 -1.41291791E-11  3.03680377E-10  5.92149913E-03  1.91292174E-02
  4.12015252E-03  4.15675512E-03  1.12145056E-03 -8.45329161E-04  7.54521482E-04
 -1.37385386E-03  4.12015366E-03  4.15675639E-03  1.12145164E-03 -8.45329270E-04
  7.54522404E-04  1.37385400E-03  2.68770161E-03  2.86704027E-03  1.58130395E-03
 -1.30732955E-03 -8.58860855E-04  3.94954927E-10  1.57941809E-02  2.58374623E-02
 -9.17193810E-03 -4.05829980E-04 -5.07388317E-03  5.56240043E-03 -1.11598605E-01
 -1.78564624E-01 -4.08688740E-03  4.85375895E-02  4.07658497E-09  5.17351105E-01
 -3.95857835E-03  7.72290577E-02  6.40023109E-09  3.74066457E-01  7.65443271E-03
  3.44956177E-02  2.06196175E-09 -4.82594952E-02 -5.26344647E-03 -8.65434175E-03
 -3.87670242E-10 -9.25633714E-03 -1.00814588E-09  1.08244844E-09  2.11271422E-03
  4.95784429E-04  1.57941815E-02  2.58374614E-02 -9.17193837E-03 -4.05829737E-04
 -5.07388338E-03 -5.56239984E-03  9.28554625E-02  7.65423753E-02  6.70683136E-03
  2.24873059E-02 -8.74096595E-03 -1.96027662E-09 -8.52530261E-02 -1.31761158E-01
 -2.02749266E-02  1.52866975E-02 -8.80025076E-10  3.44110053E-01 -3.70802486E-02
  2.79868706E-02 -1.26743412E-09  1.94133828E-01 -3.57160423E-03  8.20324329E-03
 -1.65018316E-09  6.13701149E-02 -1.03450412E-02  2.09319950E-03 -2.20298084E-10
 -4.16789862E-03  4.49009274E-11  2.21808660E-10  2.00592135E-03 -6.44974974E-03
 -6.98346541E-02 -1.08553797E-01  4.63169352E-02 -6.36698428E-03 -1.09808314E-09
  2.92429055E-01  6.86289442E-02 -2.07358001E-02 -1.21614906E-09  1.73328878E-01
  2.09340799E-02 -1.58775928E-03  2.79922109E-10 -3.76171210E-02 -9.21191020E-03
  1.20491272E-02  1.23275597E-10 -4.05852750E-03 -1.37276588E-10  3.80272967E-10
  1.13129404E-03 -9.01865264E-03  5.65122153E-02  6.74493789E-02 -7.52616002E-03
 -1.77207451E-03  7.75066695E-03 -9.62388792E-03  5.65122172E-02  6.74493797E-02
 -7.52616096E-03 -1.77207201E-03  7.75067138E-03  9.62388479E-03  5.95718091E-02
  6.92202814E-02 -8.72411637E-03 -1.05420204E-02 -6.93842235E-03  2.58426312E-09
  4.78603304E-02  5.58001120E-02 -4.62508199E-03  2.90878576E-03 -6.27610266E-03
  8.39151480E-03  2.84057032E-02  4.57873102E-02  5.85169094E-02 -1.70295100E-04
 -2.99529109E-09 -1.36875540E-01  8.64083056E-02 -3.88318147E-04 -4.46553410E-09
 -1.13883047E-01  4.24919142E-02 -2.99521123E-04 -2.18885703E-09 -7.33218686E-03
 -8.44457467E-03  1.24100668E-03  1.71497269E-10  5.66940186E-04  7.35083561E-10
 -4.30322104E-10 -3.75887632E-04  7.42845599E-03  4.78603291E-02  5.58001101E-02
 -4.62508225E-03  2.90878607E-03 -6.27610296E-03 -8.39151382E-03 -5.71169935E-02
 -5.67007042E-02 -1.48954040E-02 -9.00465049E-03  6.92237180E-03  1.12603691E-09
  6.64937304E-02  1.03453292E-01 -4.91709004E-02  3.17755100E-02  1.05749267E-09
 -2.75645100E-01 -7.14881930E-02  4.65125440E-02  1.35607693E-09 -1.77629077E-01
 -3.81099210E-02  2.56704041E-02 -1.52138198E-09 -1.09999941E-01  2.38294746E-02
 -1.21671456E-02 -1.63609468E-09 -5.97193247E-03 -5.02036186E-11 -7.65128908E-10
  3.84910760E-03 -1.01836012E-02 -7.05016318E-02 -1.10544486E-01 -3.71025230E-02
  4.08452774E-02  4.09307335E-12  3.06421237E-01 -6.34891898E-02  5.00432088E-02
 -8.35199262E-11  1.96994608E-01 -3.45760178E-02  3.90015348E-02  1.85901083E-09
  1.09066754E-01  2.00141918E-02 -1.01077713E-02  7.09021596E-10  4.22687094E-03
 -3.27552232E-10  9.83875244E-10 -4.96856249E-03  1.06640606E-02 -7.10318002E-02
 -8.82883466E-02 -3.06201920E-03 -1.87533117E-03 -5.83665729E-03  1.00708385E-02
 -7.10318052E-02 -8.82883517E-02 -3.06202278E-03 -1.87533362E-03 -5.83666237E-03
 -1.00708357E-02 -6.94881362E-02 -8.81017010E-02 -8.46744480E-03  7.09559324E-03
  9.00585172E-03 -2.56325005E-09  7.68324870E-02  9.63817815E-02  5.37096497E-03
 -3.22257111E-04 -5.99627825E-03  1.16140121E-02  2.06056080E-02  3.33015058E-02
  8.40443120E-02  3.53077838E-02 -3.79024386E-09 -1.00281796E-01  1.23490529E-01
  5.21405799E-02 -5.47068659E-09 -8.82533858E-02  6.46391551E-02  3.75899748E-02
 -2.77849546E-09 -3.45720891E-02  8.97971184E-03 -8.65981843E-03 -9.22579607E-10
 -8.36257787E-04  9.00486236E-10 -2.54885346E-10 -5.63655890E-03  1.05417927E-02
  7.68324918E-02  9.63817862E-02  5.37096490E-03 -3.22256338E-04 -5.99627941E-03
 -1.16140119E-02 -6.08475251E-02 -7.69303504E-02 -1.09614048E-03 -6.70047798E-03
  1.15976749E-02  1.27010581E-09  3.22024352E-03  4.98099204E-03 -3.80757436E-02
 -4.55239708E-02 -7.06842842E-09 -1.16451633E-02 -5.40586826E-02 -6.41208345E-02
 -1.04682807E-08 -3.03869403E-02 -2.90725287E-02 -4.57504300E-02 -9.41972547E-10
  1.31655324E-03 -7.99658964E-03 -6.36887063E-03  2.16672678E-09  1.94568955E-03
  2.17421010E-09  2.71625380E-09  6.06103976E-03 -3.57948091E-04  1.21474710E-02
  1.84924987E-02 -3.79566024E-02 -1.29858236E-01 -1.38488072E-08 -4.56932164E-02