geo opt and freq calc of benzeen molecule                               
Freq      RB3LYP                                                      6-311+G(d,p)        
Number of atoms                            I               12
Charge                                     I                0
Multiplicity                               I                1
Number of electrons                        I               42
Number of alpha electrons                  I               21
Number of beta electrons                   I               21
Number of basis functions                  I              168
Number of independant functions            I              168
Number of point charges in /Mol/           I                0
Number of translation vectors              I                0
Info1-9                                    I   N=           9
          21          19        1002           0           0         100
           6          18        -501
Num ILSW                                   I              100
ILSW                                       I   N=         100
           0           0           0           0           2           0
           0           0           0           0         402      200000
           0           0           0           0           0           0
           0      800000           0           0           1           0
           1           0           0           0     1000000           0
           0           0      100000           0          -1           0
           0           0           0           0           0           0
           0           0           0           1           0           0
           0           0           1      720000      810000           0
           0           2           0           0           0           0
           0           0           0           0           0           0
           0           0           0           0           0           0
           0           0           0           0           0           0
           0           0           0           0           0           0
           0           0           0           0           0           0
           0           0           0           0           0           0
           0           0           0           0
Number of contracted shells                I               60
Highest angular momentum                   I                2
Largest degree of contraction              I                6
Number of primitive shells                 I              114
Pure/Cartesian d shells                    I                0
Pure/Cartesian f shells                    I                0
Virial Ratio                               R      2.004738283210044E+00
SCF Energy                                 R     -2.323112460856035E+02
Total Energy                               R     -2.323112460856035E+02
RMS Force                                  R      1.611997567315286E-05
RMS Density                                R      9.429504016785929E-09
Atomic numbers                             I   N=          12
           1           6           6           6           6           6
           6           1           1           1           1           1
Nuclear charges                            R   N=          12
  1.00000000E+00  6.00000000E+00  6.00000000E+00  6.00000000E+00  6.00000000E+00
  6.00000000E+00  6.00000000E+00  1.00000000E+00  1.00000000E+00  1.00000000E+00
  1.00000000E+00  1.00000000E+00
Current cartesian coordinates              R   N=          36
  0.00000000E+00  4.68478982E+00  0.00000000E+00  0.00000000E+00  2.63555758E+00
  0.00000000E+00  2.28245981E+00  1.31777879E+00  0.00000000E+00  2.28245981E+00
 -1.31777879E+00  0.00000000E+00 -3.22762672E-16 -2.63555758E+00  0.00000000E+00
 -2.28245981E+00 -1.31777879E+00  0.00000000E+00 -2.28245981E+00  1.31777879E+00
  0.00000000E+00  4.05714700E+00  2.34239491E+00  0.00000000E+00  4.05714700E+00
 -2.34239491E+00  0.00000000E+00 -5.73721356E-16 -4.68478982E+00  0.00000000E+00
 -4.05714700E+00 -2.34239491E+00  0.00000000E+00 -4.05714700E+00  2.34239491E+00
  0.00000000E+00
Int Atom Types                             I   N=          12
           0           0           0           0           0           0
           0           0           0           0           0           0
Force Field                                I                0
MM charges                                 R   N=          12
  0.00000000E+00  0.00000000E+00  0.00000000E+00  0.00000000E+00  0.00000000E+00
  0.00000000E+00  0.00000000E+00  0.00000000E+00  0.00000000E+00  0.00000000E+00
  0.00000000E+00  0.00000000E+00
Integer atomic weights                     I   N=          12
           1          12          12          12          12          12
          12           1           1           1           1           1
Real atomic weights                        R   N=          12
  1.00782504E+00  1.20000000E+01  1.20000000E+01  1.20000000E+01  1.20000000E+01
  1.20000000E+01  1.20000000E+01  1.00782504E+00  1.00782504E+00  1.00782504E+00
  1.00782504E+00  1.00782504E+00
Atom residue info                          I   N=          12
           0           0           0           0           0           0
           0           0           0           0           0           0
Atom fragment info                         I   N=          12
           0           0           0           0           0           0
           0           0           0           0           0           0
Atom residue num                           I   N=          12
           0           0           0           0           0           0
           0           0           0           0           0           0
Nuclear spins                              I   N=          12
           1           0           0           0           0           0
           0           1           1           1           1           1
Nuclear ZEff                               R   N=          12
 -1.00000000E+00 -3.60000000E+00 -3.60000000E+00 -3.60000000E+00 -3.60000000E+00
 -3.60000000E+00 -3.60000000E+00 -1.00000000E+00 -1.00000000E+00 -1.00000000E+00
 -1.00000000E+00 -1.00000000E+00
Nuclear QMom                               R   N=          12
  0.00000000E+00  0.00000000E+00  0.00000000E+00  0.00000000E+00  0.00000000E+00
  0.00000000E+00  0.00000000E+00  0.00000000E+00  0.00000000E+00  0.00000000E+00
  0.00000000E+00  0.00000000E+00
Nuclear GFac                               R   N=          12
  2.79284600E+00  0.00000000E+00  0.00000000E+00  0.00000000E+00  0.00000000E+00
  0.00000000E+00  0.00000000E+00  2.79284600E+00  2.79284600E+00  2.79284600E+00
  2.79284600E+00  2.79284600E+00
MicOpt                                     I   N=          12
          -1          -1          -1          -1          -1          -1
          -1          -1          -1          -1          -1          -1
Constraint Structure                       R   N=          36
  0.00000000E+00  4.68478982E+00  0.00000000E+00  0.00000000E+00  2.63555758E+00
  0.00000000E+00  2.28245981E+00  1.31777879E+00  0.00000000E+00  2.28245981E+00
 -1.31777879E+00  0.00000000E+00 -3.22762672E-16 -2.63555758E+00  0.00000000E+00
 -2.28245981E+00 -1.31777879E+00  0.00000000E+00 -2.28245981E+00  1.31777879E+00
  0.00000000E+00  4.05714700E+00  2.34239491E+00  0.00000000E+00  4.05714700E+00
 -2.34239491E+00  0.00000000E+00 -5.73721356E-16 -4.68478982E+00  0.00000000E+00
 -4.05714700E+00 -2.34239491E+00  0.00000000E+00 -4.05714700E+00  2.34239491E+00
  0.00000000E+00
ONIOM Charges                              I   N=          16
           0           0           0           0           0           0
           0           0           0           0           0           0
           0           0           0           0
ONIOM Multiplicities                       I   N=          16
           1           0           0           0           0           0
           0           0           0           0           0           0
           0           0           0           0
Atom Layers                                I   N=          12
           0           0           0           0           0           0
           0           0           0           0           0           0
Atom Modifiers                             I   N=          12
           0           0           0           0           0           0
           0           0           0           0           0           0
Int Atom Modified Types                    I   N=          12
           0           0           0           0           0           0
           0           0           0           0           0           0
Link Atoms                                 I   N=          12
           0           0           0           0           0           0
           0           0           0           0           0           0
Atom Modified MM Charges                   R   N=          12
  0.00000000E+00  0.00000000E+00  0.00000000E+00  0.00000000E+00  0.00000000E+00
  0.00000000E+00  0.00000000E+00  0.00000000E+00  0.00000000E+00  0.00000000E+00
  0.00000000E+00  0.00000000E+00
Link Distances                             R   N=          48
  0.00000000E+00  0.00000000E+00  0.00000000E+00  0.00000000E+00  0.00000000E+00
  0.00000000E+00  0.00000000E+00  0.00000000E+00  0.00000000E+00  0.00000000E+00
  0.00000000E+00  0.00000000E+00  0.00000000E+00  0.00000000E+00  0.00000000E+00
  0.00000000E+00  0.00000000E+00  0.00000000E+00  0.00000000E+00  0.00000000E+00
  0.00000000E+00  0.00000000E+00  0.00000000E+00  0.00000000E+00  0.00000000E+00
  0.00000000E+00  0.00000000E+00  0.00000000E+00  0.00000000E+00  0.00000000E+00
  0.00000000E+00  0.00000000E+00  0.00000000E+00  0.00000000E+00  0.00000000E+00
  0.00000000E+00  0.00000000E+00  0.00000000E+00  0.00000000E+00  0.00000000E+00
  0.00000000E+00  0.00000000E+00  0.00000000E+00  0.00000000E+00  0.00000000E+00
  0.00000000E+00  0.00000000E+00  0.00000000E+00
MxBond                                     I                3
NBond                                      I   N=          12
           1           3           3           3           3           3
           3           1           1           1           1           1
IBond                                      I   N=          36
           2           0           0           1           3           7
           2           4           8           3           5           9
           4           6          10           5           7          11
           2           6          12           3           0           0
           4           0           0           5           0           0
           6           0           0           7           0           0
RBond                                      R   N=          36
  1.00000000E+00  0.00000000E+00  0.00000000E+00  1.00000000E+00  1.50000000E+00
  1.50000000E+00  1.50000000E+00  1.50000000E+00  1.00000000E+00  1.50000000E+00
  1.50000000E+00  1.00000000E+00  1.50000000E+00  1.50000000E+00  1.00000000E+00
  1.50000000E+00  1.50000000E+00  1.00000000E+00  1.50000000E+00  1.50000000E+00
  1.00000000E+00  1.00000000E+00  0.00000000E+00  0.00000000E+00  1.00000000E+00
  0.00000000E+00  0.00000000E+00  1.00000000E+00  0.00000000E+00  0.00000000E+00
  1.00000000E+00  0.00000000E+00  0.00000000E+00  1.00000000E+00  0.00000000E+00
  0.00000000E+00
Shell types                                I   N=          60
           0           0           0           1           0          -1
          -1          -1          -1          -2           0          -1
          -1          -1          -1          -2           0          -1
          -1          -1          -1          -2           0          -1
          -1          -1          -1          -2           0          -1
          -1          -1          -1          -2           0          -1
          -1          -1          -1          -2           0           0
           0           1           0           0           0           1
           0           0           0           1           0           0
           0           1           0           0           0           1
Number of primitives per shell             I   N=          60
           3           1           1           1           6           3
           1           1           1           1           6           3
           1           1           1           1           6           3
           1           1           1           1           6           3
           1           1           1           1           6           3
           1           1           1           1           6           3
           1           1           1           1           3           1
           1           1           3           1           1           1
           3           1           1           1           3           1
           1           1           3           1           1           1
Shell to atom map                          I   N=          60
           1           1           1           1           2           2
           2           2           2           2           3           3
           3           3           3           3           4           4
           4           4           4           4           5           5
           5           5           5           5           6           6
           6           6           6           6           7           7
           7           7           7           7           8           8
           8           8           9           9           9           9
          10          10          10          10          11          11
          11          11          12          12          12          12
Primitive exponents                        R   N=         114
  3.38650000E+01  5.09479000E+00  1.15879000E+00  3.25840000E-01  1.02741000E-01
  7.50000000E-01  4.56324000E+03  6.82024000E+02  1.54973000E+02  4.44553000E+01
  1.30290000E+01  1.82773000E+00  2.09642000E+01  4.80331000E+00  1.45933000E+00
  4.83456000E-01  1.45585000E-01  4.38000000E-02  6.26000000E-01  4.56324000E+03
  6.82024000E+02  1.54973000E+02  4.44553000E+01  1.30290000E+01  1.82773000E+00
  2.09642000E+01  4.80331000E+00  1.45933000E+00  4.83456000E-01  1.45585000E-01
  4.38000000E-02  6.26000000E-01  4.56324000E+03  6.82024000E+02  1.54973000E+02
  4.44553000E+01  1.30290000E+01  1.82773000E+00  2.09642000E+01  4.80331000E+00
  1.45933000E+00  4.83456000E-01  1.45585000E-01  4.38000000E-02  6.26000000E-01
  4.56324000E+03  6.82024000E+02  1.54973000E+02  4.44553000E+01  1.30290000E+01
  1.82773000E+00  2.09642000E+01  4.80331000E+00  1.45933000E+00  4.83456000E-01
  1.45585000E-01  4.38000000E-02  6.26000000E-01  4.56324000E+03  6.82024000E+02
  1.54973000E+02  4.44553000E+01  1.30290000E+01  1.82773000E+00  2.09642000E+01
  4.80331000E+00  1.45933000E+00  4.83456000E-01  1.45585000E-01  4.38000000E-02
  6.26000000E-01  4.56324000E+03  6.82024000E+02  1.54973000E+02  4.44553000E+01
  1.30290000E+01  1.82773000E+00  2.09642000E+01  4.80331000E+00  1.45933000E+00
  4.83456000E-01  1.45585000E-01  4.38000000E-02  6.26000000E-01  3.38650000E+01
  5.09479000E+00  1.15879000E+00  3.25840000E-01  1.02741000E-01  7.50000000E-01
  3.38650000E+01  5.09479000E+00  1.15879000E+00  3.25840000E-01  1.02741000E-01
  7.50000000E-01  3.38650000E+01  5.09479000E+00  1.15879000E+00  3.25840000E-01
  1.02741000E-01  7.50000000E-01  3.38650000E+01  5.09479000E+00  1.15879000E+00
  3.25840000E-01  1.02741000E-01  7.50000000E-01  3.38650000E+01  5.09479000E+00
  1.15879000E+00  3.25840000E-01  1.02741000E-01  7.50000000E-01
Contraction coefficients                   R   N=         114
  2.54938145E-02  1.90373109E-01  8.52161486E-01  1.00000000E+00  1.00000000E+00
  1.00000000E+00  1.96665025E-03  1.52306019E-02  7.61269097E-02  2.60801033E-01
  6.16462078E-01  2.21006028E-01  1.14660081E-01  9.19999648E-01 -3.03068213E-03
  1.00000000E+00  1.00000000E+00  1.00000000E+00  1.00000000E+00  1.96665025E-03
  1.52306019E-02  7.61269097E-02  2.60801033E-01  6.16462078E-01  2.21006028E-01
  1.14660081E-01  9.19999648E-01 -3.03068213E-03  1.00000000E+00  1.00000000E+00
  1.00000000E+00  1.00000000E+00  1.96665025E-03  1.52306019E-02  7.61269097E-02
  2.60801033E-01  6.16462078E-01  2.21006028E-01  1.14660081E-01  9.19999648E-01
 -3.03068213E-03  1.00000000E+00  1.00000000E+00  1.00000000E+00  1.00000000E+00
  1.96665025E-03  1.52306019E-02  7.61269097E-02  2.60801033E-01  6.16462078E-01
  2.21006028E-01  1.14660081E-01  9.19999648E-01 -3.03068213E-03  1.00000000E+00
  1.00000000E+00  1.00000000E+00  1.00000000E+00  1.96665025E-03  1.52306019E-02
  7.61269097E-02  2.60801033E-01  6.16462078E-01  2.21006028E-01  1.14660081E-01
  9.19999648E-01 -3.03068213E-03  1.00000000E+00  1.00000000E+00  1.00000000E+00
  1.00000000E+00  1.96665025E-03  1.52306019E-02  7.61269097E-02  2.60801033E-01
  6.16462078E-01  2.21006028E-01  1.14660081E-01  9.19999648E-01 -3.03068213E-03
  1.00000000E+00  1.00000000E+00  1.00000000E+00  1.00000000E+00  2.54938145E-02
  1.90373109E-01  8.52161486E-01  1.00000000E+00  1.00000000E+00  1.00000000E+00
  2.54938145E-02  1.90373109E-01  8.52161486E-01  1.00000000E+00  1.00000000E+00
  1.00000000E+00  2.54938145E-02  1.90373109E-01  8.52161486E-01  1.00000000E+00
  1.00000000E+00  1.00000000E+00  2.54938145E-02  1.90373109E-01  8.52161486E-01
  1.00000000E+00  1.00000000E+00  1.00000000E+00  2.54938145E-02  1.90373109E-01
  8.52161486E-01  1.00000000E+00  1.00000000E+00  1.00000000E+00
P(S=P) Contraction coefficients            R   N=         114
  0.00000000E+00  0.00000000E+00  0.00000000E+00  0.00000000E+00  0.00000000E+00
  0.00000000E+00  0.00000000E+00  0.00000000E+00  0.00000000E+00  0.00000000E+00
  0.00000000E+00  0.00000000E+00  4.02486927E-02  2.37593957E-01  8.15853851E-01
  1.00000000E+00  1.00000000E+00  1.00000000E+00  0.00000000E+00  0.00000000E+00
  0.00000000E+00  0.00000000E+00  0.00000000E+00  0.00000000E+00  0.00000000E+00
  4.02486927E-02  2.37593957E-01  8.15853851E-01  1.00000000E+00  1.00000000E+00
  1.00000000E+00  0.00000000E+00  0.00000000E+00  0.00000000E+00  0.00000000E+00
  0.00000000E+00  0.00000000E+00  0.00000000E+00  4.02486927E-02  2.37593957E-01
  8.15853851E-01  1.00000000E+00  1.00000000E+00  1.00000000E+00  0.00000000E+00
  0.00000000E+00  0.00000000E+00  0.00000000E+00  0.00000000E+00  0.00000000E+00
  0.00000000E+00  4.02486927E-02  2.37593957E-01  8.15853851E-01  1.00000000E+00
  1.00000000E+00  1.00000000E+00  0.00000000E+00  0.00000000E+00  0.00000000E+00
  0.00000000E+00  0.00000000E+00  0.00000000E+00  0.00000000E+00  4.02486927E-02
  2.37593957E-01  8.15853851E-01  1.00000000E+00  1.00000000E+00  1.00000000E+00
  0.00000000E+00  0.00000000E+00  0.00000000E+00  0.00000000E+00  0.00000000E+00
  0.00000000E+00  0.00000000E+00  4.02486927E-02  2.37593957E-01  8.15853851E-01
  1.00000000E+00  1.00000000E+00  1.00000000E+00  0.00000000E+00  0.00000000E+00
  0.00000000E+00  0.00000000E+00  0.00000000E+00  0.00000000E+00  0.00000000E+00
  0.00000000E+00  0.00000000E+00  0.00000000E+00  0.00000000E+00  0.00000000E+00
  0.00000000E+00  0.00000000E+00  0.00000000E+00  0.00000000E+00  0.00000000E+00
  0.00000000E+00  0.00000000E+00  0.00000000E+00  0.00000000E+00  0.00000000E+00
  0.00000000E+00  0.00000000E+00  0.00000000E+00  0.00000000E+00  0.00000000E+00
  0.00000000E+00  0.00000000E+00  0.00000000E+00  0.00000000E+00
Coordinates of each shell                  R   N=         180
  0.00000000E+00  4.68478982E+00  0.00000000E+00  0.00000000E+00  4.68478982E+00
  0.00000000E+00  0.00000000E+00  4.68478982E+00  0.00000000E+00  0.00000000E+00
  4.68478982E+00  0.00000000E+00  0.00000000E+00  2.63555758E+00  0.00000000E+00
  0.00000000E+00  2.63555758E+00  0.00000000E+00  0.00000000E+00  2.63555758E+00
  0.00000000E+00  0.00000000E+00  2.63555758E+00  0.00000000E+00  0.00000000E+00
  2.63555758E+00  0.00000000E+00  0.00000000E+00  2.63555758E+00  0.00000000E+00
  2.28245981E+00  1.31777879E+00  0.00000000E+00  2.28245981E+00  1.31777879E+00
  0.00000000E+00  2.28245981E+00  1.31777879E+00  0.00000000E+00  2.28245981E+00
  1.31777879E+00  0.00000000E+00  2.28245981E+00  1.31777879E+00  0.00000000E+00
  2.28245981E+00  1.31777879E+00  0.00000000E+00  2.28245981E+00 -1.31777879E+00
  0.00000000E+00  2.28245981E+00 -1.31777879E+00  0.00000000E+00  2.28245981E+00
 -1.31777879E+00  0.00000000E+00  2.28245981E+00 -1.31777879E+00  0.00000000E+00
  2.28245981E+00 -1.31777879E+00  0.00000000E+00  2.28245981E+00 -1.31777879E+00
  0.00000000E+00 -3.22762672E-16 -2.63555758E+00  0.00000000E+00 -3.22762672E-16
 -2.63555758E+00  0.00000000E+00 -3.22762672E-16 -2.63555758E+00  0.00000000E+00
 -3.22762672E-16 -2.63555758E+00  0.00000000E+00 -3.22762672E-16 -2.63555758E+00
  0.00000000E+00 -3.22762672E-16 -2.63555758E+00  0.00000000E+00 -2.28245981E+00
 -1.31777879E+00  0.00000000E+00 -2.28245981E+00 -1.31777879E+00  0.00000000E+00
 -2.28245981E+00 -1.31777879E+00  0.00000000E+00 -2.28245981E+00 -1.31777879E+00
  0.00000000E+00 -2.28245981E+00 -1.31777879E+00  0.00000000E+00 -2.28245981E+00
 -1.31777879E+00  0.00000000E+00 -2.28245981E+00  1.31777879E+00  0.00000000E+00
 -2.28245981E+00  1.31777879E+00  0.00000000E+00 -2.28245981E+00  1.31777879E+00
  0.00000000E+00 -2.28245981E+00  1.31777879E+00  0.00000000E+00 -2.28245981E+00
  1.31777879E+00  0.00000000E+00 -2.28245981E+00  1.31777879E+00  0.00000000E+00
  4.05714700E+00  2.34239491E+00  0.00000000E+00  4.05714700E+00  2.34239491E+00
  0.00000000E+00  4.05714700E+00  2.34239491E+00  0.00000000E+00  4.05714700E+00
  2.34239491E+00  0.00000000E+00  4.05714700E+00 -2.34239491E+00  0.00000000E+00
  4.05714700E+00 -2.34239491E+00  0.00000000E+00  4.05714700E+00 -2.34239491E+00
  0.00000000E+00  4.05714700E+00 -2.34239491E+00  0.00000000E+00 -5.73721356E-16
 -4.68478982E+00  0.00000000E+00 -5.73721356E-16 -4.68478982E+00  0.00000000E+00
 -5.73721356E-16 -4.68478982E+00  0.00000000E+00 -5.73721356E-16 -4.68478982E+00
  0.00000000E+00 -4.05714700E+00 -2.34239491E+00  0.00000000E+00 -4.05714700E+00
 -2.34239491E+00  0.00000000E+00 -4.05714700E+00 -2.34239491E+00  0.00000000E+00
 -4.05714700E+00 -2.34239491E+00  0.00000000E+00 -4.05714700E+00  2.34239491E+00
  0.00000000E+00 -4.05714700E+00  2.34239491E+00  0.00000000E+00 -4.05714700E+00
  2.34239491E+00  0.00000000E+00 -4.05714700E+00  2.34239491E+00  0.00000000E+00
Alpha Orbital Energies                     R   N=         168
 -1.01791967E+01 -1.01789524E+01 -1.01789519E+01 -1.01783957E+01 -1.01783952E+01
 -1.01781278E+01 -8.59878872E-01 -7.51563825E-01 -7.51563525E-01 -6.08299915E-01
 -6.08299602E-01 -5.29760499E-01 -4.66569748E-01 -4.53250803E-01 -4.27989124E-01
 -4.27988918E-01 -3.73029081E-01 -3.50926028E-01 -3.50925449E-01 -2.60087963E-01
 -2.60085709E-01 -1.76424948E-02 -1.76322473E-02  4.61797220E-03  2.34983709E-02
  2.35076424E-02  4.53403371E-02  4.53458220E-02  6.28271164E-02  7.17251984E-02
  7.82407565E-02  8.95444634E-02  8.97863771E-02  9.88066599E-02  1.24524579E-01
  1.39972920E-01  1.40098581E-01  1.42465568E-01  1.42492667E-01  1.44767707E-01
  1.45122270E-01  1.69377611E-01  1.95329456E-01  1.95343609E-01  2.00018877E-01
  2.06039731E-01  2.06212004E-01  2.07123081E-01  2.07135662E-01  2.25040431E-01
  2.34404492E-01  2.34535733E-01  2.66035287E-01  2.83141033E-01  3.23143384E-01
  3.23145561E-01  3.23511065E-01  3.23515489E-01  4.06544113E-01  4.51107814E-01
  5.05091726E-01  5.25633318E-01  5.25730591E-01  5.29863954E-01  5.48501271E-01
  5.49015413E-01  5.49076128E-01  5.73846853E-01  5.73866755E-01  6.06060855E-01
  6.17786723E-01  6.17801636E-01  6.73762474E-01  6.92234544E-01  6.92234609E-01
  7.20036398E-01  7.20058886E-01  7.29078274E-01  7.77757201E-01  8.23107606E-01
  8.23127825E-01  8.23136700E-01  8.23206416E-01  8.56935430E-01  8.57707733E-01
  8.57752346E-01  8.70090136E-01  9.37232828E-01  1.01061175E+00  1.01515255E+00
  1.01521509E+00  1.07759429E+00  1.07759499E+00  1.13843478E+00  1.13843558E+00
  1.27788695E+00  1.29434941E+00  1.45691075E+00  1.49508504E+00  1.49509325E+00
  1.50392146E+00  1.56548303E+00  1.56914351E+00  1.56914832E+00  1.63952482E+00
  1.63952498E+00  1.66135515E+00  1.66136911E+00  1.71433671E+00  1.77254062E+00
  1.77254201E+00  1.80105267E+00  1.80106195E+00  1.84746578E+00  1.92617335E+00
  1.92617779E+00  1.94153013E+00  1.94154051E+00  1.95725946E+00  1.97054348E+00
  2.01494043E+00  2.01494402E+00  2.07956651E+00  2.07956852E+00  2.32109633E+00
  2.34261108E+00  2.35808699E+00  2.38913072E+00  2.38913158E+00  2.40036779E+00
  2.40037601E+00  2.61887383E+00  2.61887578E+00  2.63683402E+00  2.64912160E+00
  2.66720704E+00  2.71041442E+00  2.71044618E+00  2.74558440E+00  2.74559642E+00
  2.76197200E+00  2.79029281E+00  2.79030567E+00  2.88613564E+00  2.88613813E+00
  2.90862411E+00  2.92532403E+00  2.92535219E+00  3.07509502E+00  3.10331124E+00
  3.33835705E+00  3.33836685E+00  3.47901565E+00  3.47903278E+00  3.49486577E+00
  3.67730184E+00  3.98005238E+00  3.98005268E+00  4.07656944E+00  4.14577480E+00
  4.14577869E+00  4.84183215E+00  2.35796159E+01  2.39590373E+01  2.39590380E+01
  2.40894767E+01  2.40894769E+01  2.41986159E+01
Alpha MO coefficients                      R   N=       28224
 -9.43249709E-05 -2.27292392E-03  2.70117659E-03  0.00000000E+00  1.39462699E-03
  0.00000000E+00  2.29597005E-01  1.89149809E-01  0.00000000E+00 -2.96973557E-04
  0.00000000E+00  7.32351446E-03  0.00000000E+00  1.69037580E-03  0.00000000E+00
 -3.51998484E-03  0.00000000E+00 -3.28896348E-04  0.00000000E+00 -3.56437922E-04
  0.00000000E+00 -1.00164833E-03  0.00000000E+00 -3.04901907E-04  0.00000000E+00
  0.00000000E+00 -8.97443329E-04  0.00000000E+00  2.29816573E-01  1.89330409E-01
 -2.56898094E-04 -1.48585216E-04  0.00000000E+00  7.33110805E-03  1.46282516E-03
  8.45469545E-04  0.00000000E+00 -3.52482622E-03 -2.82408817E-04 -1.63324802E-04
  0.00000000E+00 -3.44255806E-04 -8.69891427E-04 -5.01472159E-04  0.00000000E+00
 -3.05911403E-04  0.00000000E+00  0.00000000E+00  4.48903960E-04  7.76706954E-04
  2.29816573E-01  1.89330409E-01 -2.56898094E-04  1.48585216E-04  0.00000000E+00
  7.33110805E-03  1.46282516E-03 -8.45469545E-04  0.00000000E+00 -3.52482622E-03
 -2.82408817E-04  1.63324802E-04  0.00000000E+00 -3.44255806E-04 -8.69891427E-04
  5.01472159E-04  0.00000000E+00 -3.05911403E-04  0.00000000E+00  0.00000000E+00
  4.48903960E-04 -7.76706954E-04  2.29597005E-01  1.89149809E-01  0.00000000E+00
  2.96973557E-04  0.00000000E+00  7.32351446E-03  0.00000000E+00 -1.69037580E-03
  0.00000000E+00 -3.51998484E-03  0.00000000E+00  3.28896348E-04  0.00000000E+00
 -3.56437922E-04  0.00000000E+00  1.00164833E-03  0.00000000E+00 -3.04901907E-04
  0.00000000E+00  0.00000000E+00 -8.97443329E-04  0.00000000E+00  2.29816573E-01
  1.89330409E-01  2.56898094E-04  1.48585216E-04  0.00000000E+00  7.33110805E-03
 -1.46282516E-03 -8.45469545E-04  0.00000000E+00 -3.52482622E-03  2.82408817E-04
  1.63324802E-04  0.00000000E+00 -3.44255806E-04  8.69891427E-04  5.01472159E-04
  0.00000000E+00 -3.05911403E-04  0.00000000E+00  0.00000000E+00  4.48903960E-04
  7.76706954E-04  2.29816573E-01  1.89330409E-01  2.56898094E-04 -1.48585216E-04
  0.00000000E+00  7.33110805E-03 -1.46282516E-03  8.45469545E-04  0.00000000E+00
 -3.52482622E-03  2.82408817E-04 -1.63324802E-04  0.00000000E+00 -3.44255806E-04
  8.69891427E-04 -5.01472159E-04  0.00000000E+00 -3.05911403E-04  0.00000000E+00
  0.00000000E+00  4.48903960E-04 -7.76706954E-04 -9.41221061E-05 -2.27453515E-03
  2.70116981E-03  1.20839541E-03  6.97693484E-04  0.00000000E+00 -9.41221061E-05
 -2.27453515E-03  2.70116981E-03  1.20839541E-03 -6.97693484E-04  0.00000000E+00
 -9.43249709E-05 -2.27292392E-03  2.70117659E-03  0.00000000E+00 -1.39462699E-03
  0.00000000E+00 -9.41221061E-05 -2.27453515E-03  2.70116981E-03 -1.20839541E-03
 -6.97693484E-04  0.00000000E+00 -9.41221061E-05 -2.27453515E-03  2.70116981E-03
 -1.20839541E-03  6.97693484E-04  0.00000000E+00  0.00000000E+00  0.00000000E+00
  0.00000000E+00 -1.11454257E-04  0.00000000E+00  0.00000000E+00  0.00000000E+00
  0.00000000E+00  8.23950717E-04  0.00000000E+00  0.00000000E+00  0.00000000E+00
 -3.67226634E-03  0.00000000E+00  0.00000000E+00  0.00000000E+00  1.13959438E-03
  0.00000000E+00  0.00000000E+00  0.00000000E+00 -1.83226033E-03  0.00000000E+00
  0.00000000E+00  0.00000000E+00  0.00000000E+00  0.00000000E+00  0.00000000E+00
  1.92221974E-03  2.81424346E-01  2.31602123E-01  1.56987507E-04 -3.85074891E-04
  0.00000000E+00  9.97187981E-03 -9.03471426E-04  1.59856712E-03  0.00000000E+00
 -4.65476394E-03  1.27212503E-03  7.65151496E-05  0.00000000E+00  6.20867770E-03
 -2.29666841E-03 -2.68131817E-04  0.00000000E+00 -6.10083015E-04  0.00000000E+00
  0.00000000E+00  9.23771754E-04 -3.22198646E-04  2.81424346E-01  2.31602123E-01
  1.56987507E-04  3.85074891E-04  0.00000000E+00  9.97187981E-03 -9.03471426E-04
 -1.59856712E-03  0.00000000E+00 -4.65476394E-03  1.27212503E-03 -7.65151496E-05
  0.00000000E+00  6.20867770E-03 -2.29666841E-03  2.68131817E-04  0.00000000E+00
 -6.10083015E-04  0.00000000E+00  0.00000000E+00  9.23771754E-04  3.22198646E-04
  0.00000000E+00  0.00000000E+00  8.23950717E-04  0.00000000E+00  0.00000000E+00
  0.00000000E+00 -3.67226634E-03  0.00000000E+00  0.00000000E+00  0.00000000E+00
  1.13959438E-03  0.00000000E+00  0.00000000E+00  0.00000000E+00 -1.83226033E-03
  0.00000000E+00  0.00000000E+00  0.00000000E+00  0.00000000E+00  0.00000000E+00
  0.00000000E+00 -1.92221974E-03 -2.81424346E-01 -2.31602123E-01  1.56987507E-04
 -3.85074891E-04  0.00000000E+00 -9.97187981E-03 -9.03471426E-04  1.59856712E-03
  0.00000000E+00  4.65476394E-03  1.27212503E-03  7.65151496E-05  0.00000000E+00
 -6.20867770E-03 -2.29666841E-03 -2.68131817E-04  0.00000000E+00  6.10083015E-04
  0.00000000E+00  0.00000000E+00 -9.23771754E-04  3.22198646E-04 -2.81424346E-01