geo opt and freq calc of ethane                                         
Freq      RB3LYP                                                      6-311+G(d,p)        
Number of atoms                            I                8
Charge                                     I                0
Multiplicity                               I                1
Number of electrons                        I               18
Number of alpha electrons                  I                9
Number of beta electrons                   I                9
Number of basis functions                  I               80
Number of independant functions            I               80
Number of point charges in /Mol/           I                0
Number of translation vectors              I                0
Info1-9                                    I   N=           9
          17          15        1002           0           0         100
           6          18        -501
Num ILSW                                   I              100
ILSW                                       I   N=         100
           0           0           0           0           2           0
           0           0           0           0         402      200000
           0           0           0           0           0           0
           0      800000           0           0           1           0
           1           0           0           0     1000000           0
           0           0      100000           0          -1           0
           0           0           0           0           0           0
           0           0           0           1           0           0
           0           0           1      720000      810000           0
           0           0           0           0           0           0
           0           0           0           0           0           0
           0           0           0           0           0           0
           0           0           0           0           0           0
           0           0           0           0           0           0
           0           0           0           0           0           0
           0           0           0           0           0           0
           0           0           0           0
Number of contracted shells                I               36
Highest angular momentum                   I                2
Largest degree of contraction              I                6
Number of primitive shells                 I               62
Pure/Cartesian d shells                    I                0
Pure/Cartesian f shells                    I                0
Virial Ratio                               R      2.005791512086567E+00
SCF Energy                                 R     -7.985654149677370E+01
Total Energy                               R     -7.985654149677370E+01
RMS Force                                  R      1.550385867672555E-04
RMS Density                                R      2.631992356053169E-10
Atomic numbers                             I   N=           8
           6           6           1           1           1           1
           1           1
Nuclear charges                            R   N=           8
  6.00000000E+00  6.00000000E+00  1.00000000E+00  1.00000000E+00  1.00000000E+00
  1.00000000E+00  1.00000000E+00  1.00000000E+00
Current cartesian coordinates              R   N=          24
 -1.44542766E+00  1.01761085E-06 -8.00324759E-06  1.44542766E+00 -1.01914758E-06
  8.01735041E-06 -2.19893497E+00  1.58260548E+00 -1.09535671E+00 -2.19894677E+00
 -1.73995702E+00 -8.22812686E-01 -2.19887642E+00  1.57361024E-01  1.91825646E+00
  2.19893504E+00 -1.58260476E+00  1.09535770E+00  2.19887640E+00 -1.57362288E-01
 -1.91825637E+00  2.19894676E+00  1.73995758E+00  8.22811516E-01
Int Atom Types                             I   N=           8
           0           0           0           0           0           0
           0           0
Force Field                                I                0
MM charges                                 R   N=           8
  0.00000000E+00  0.00000000E+00  0.00000000E+00  0.00000000E+00  0.00000000E+00
  0.00000000E+00  0.00000000E+00  0.00000000E+00
Integer atomic weights                     I   N=           8
          12          12           1           1           1           1
           1           1
Real atomic weights                        R   N=           8
  1.20000000E+01  1.20000000E+01  1.00782504E+00  1.00782504E+00  1.00782504E+00
  1.00782504E+00  1.00782504E+00  1.00782504E+00
Atom residue info                          I   N=           8
           0           0           0           0           0           0
           0           0
Atom fragment info                         I   N=           8
           0           0           0           0           0           0
           0           0
Atom residue num                           I   N=           8
           0           0           0           0           0           0
           0           0
Nuclear spins                              I   N=           8
           0           0           1           1           1           1
           1           1
Nuclear ZEff                               R   N=           8
 -3.60000000E+00 -3.60000000E+00 -1.00000000E+00 -1.00000000E+00 -1.00000000E+00
 -1.00000000E+00 -1.00000000E+00 -1.00000000E+00
Nuclear QMom                               R   N=           8
  0.00000000E+00  0.00000000E+00  0.00000000E+00  0.00000000E+00  0.00000000E+00
  0.00000000E+00  0.00000000E+00  0.00000000E+00
Nuclear GFac                               R   N=           8
  0.00000000E+00  0.00000000E+00  2.79284600E+00  2.79284600E+00  2.79284600E+00
  2.79284600E+00  2.79284600E+00  2.79284600E+00
MicOpt                                     I   N=           8
          -1          -1          -1          -1          -1          -1
          -1          -1
Constraint Structure                       R   N=          24
 -1.44542766E+00  1.01761085E-06 -8.00324759E-06  1.44542766E+00 -1.01914758E-06
  8.01735041E-06 -2.19893497E+00  1.58260548E+00 -1.09535671E+00 -2.19894677E+00
 -1.73995702E+00 -8.22812686E-01 -2.19887642E+00  1.57361024E-01  1.91825646E+00
  2.19893504E+00 -1.58260476E+00  1.09535770E+00  2.19887640E+00 -1.57362288E-01
 -1.91825637E+00  2.19894676E+00  1.73995758E+00  8.22811516E-01
ONIOM Charges                              I   N=          16
           0           0           0           0           0           0
           0           0           0           0           0           0
           0           0           0           0
ONIOM Multiplicities                       I   N=          16
           1           0           0           0           0           0
           0           0           0           0           0           0
           0           0           0           0
Atom Layers                                I   N=           8
           0           0           0           0           0           0
           0           0
Atom Modifiers                             I   N=           8
           0           0           0           0           0           0
           0           0
Int Atom Modified Types                    I   N=           8
           0           0           0           0           0           0
           0           0
Link Atoms                                 I   N=           8
           0           0           0           0           0           0
           0           0
Atom Modified MM Charges                   R   N=           8
  0.00000000E+00  0.00000000E+00  0.00000000E+00  0.00000000E+00  0.00000000E+00
  0.00000000E+00  0.00000000E+00  0.00000000E+00
Link Distances                             R   N=          32
  0.00000000E+00  0.00000000E+00  0.00000000E+00  0.00000000E+00  0.00000000E+00
  0.00000000E+00  0.00000000E+00  0.00000000E+00  0.00000000E+00  0.00000000E+00
  0.00000000E+00  0.00000000E+00  0.00000000E+00  0.00000000E+00  0.00000000E+00
  0.00000000E+00  0.00000000E+00  0.00000000E+00  0.00000000E+00  0.00000000E+00
  0.00000000E+00  0.00000000E+00  0.00000000E+00  0.00000000E+00  0.00000000E+00
  0.00000000E+00  0.00000000E+00  0.00000000E+00  0.00000000E+00  0.00000000E+00
  0.00000000E+00  0.00000000E+00
MxBond                                     I                4
NBond                                      I   N=           8
           4           4           1           1           1           1
           1           1
IBond                                      I   N=          32
           2           3           4           5           1           6
           7           8           1           0           0           0
           1           0           0           0           1           0
           0           0           2           0           0           0
           2           0           0           0           2           0
           0           0
RBond                                      R   N=          32
  1.00000000E+00  1.00000000E+00  1.00000000E+00  1.00000000E+00  1.00000000E+00
  1.00000000E+00  1.00000000E+00  1.00000000E+00  1.00000000E+00  0.00000000E+00
  0.00000000E+00  0.00000000E+00  1.00000000E+00  0.00000000E+00  0.00000000E+00
  0.00000000E+00  1.00000000E+00  0.00000000E+00  0.00000000E+00  0.00000000E+00
  1.00000000E+00  0.00000000E+00  0.00000000E+00  0.00000000E+00  1.00000000E+00
  0.00000000E+00  0.00000000E+00  0.00000000E+00  1.00000000E+00  0.00000000E+00
  0.00000000E+00  0.00000000E+00
Shell types                                I   N=          36
           0          -1          -1          -1          -1          -2
           0          -1          -1          -1          -1          -2
           0           0           0           1           0           0
           0           1           0           0           0           1
           0           0           0           1           0           0
           0           1           0           0           0           1
Number of primitives per shell             I   N=          36
           6           3           1           1           1           1
           6           3           1           1           1           1
           3           1           1           1           3           1
           1           1           3           1           1           1
           3           1           1           1           3           1
           1           1           3           1           1           1
Shell to atom map                          I   N=          36
           1           1           1           1           1           1
           2           2           2           2           2           2
           3           3           3           3           4           4
           4           4           5           5           5           5
           6           6           6           6           7           7
           7           7           8           8           8           8
Primitive exponents                        R   N=          62
  4.56324000E+03  6.82024000E+02  1.54973000E+02  4.44553000E+01  1.30290000E+01
  1.82773000E+00  2.09642000E+01  4.80331000E+00  1.45933000E+00  4.83456000E-01
  1.45585000E-01  4.38000000E-02  6.26000000E-01  4.56324000E+03  6.82024000E+02
  1.54973000E+02  4.44553000E+01  1.30290000E+01  1.82773000E+00  2.09642000E+01
  4.80331000E+00  1.45933000E+00  4.83456000E-01  1.45585000E-01  4.38000000E-02
  6.26000000E-01  3.38650000E+01  5.09479000E+00  1.15879000E+00  3.25840000E-01
  1.02741000E-01  7.50000000E-01  3.38650000E+01  5.09479000E+00  1.15879000E+00
  3.25840000E-01  1.02741000E-01  7.50000000E-01  3.38650000E+01  5.09479000E+00
  1.15879000E+00  3.25840000E-01  1.02741000E-01  7.50000000E-01  3.38650000E+01
  5.09479000E+00  1.15879000E+00  3.25840000E-01  1.02741000E-01  7.50000000E-01
  3.38650000E+01  5.09479000E+00  1.15879000E+00  3.25840000E-01  1.02741000E-01
  7.50000000E-01  3.38650000E+01  5.09479000E+00  1.15879000E+00  3.25840000E-01
  1.02741000E-01  7.50000000E-01
Contraction coefficients                   R   N=          62
  1.96665025E-03  1.52306019E-02  7.61269097E-02  2.60801033E-01  6.16462078E-01
  2.21006028E-01  1.14660081E-01  9.19999648E-01 -3.03068213E-03  1.00000000E+00
  1.00000000E+00  1.00000000E+00  1.00000000E+00  1.96665025E-03  1.52306019E-02
  7.61269097E-02  2.60801033E-01  6.16462078E-01  2.21006028E-01  1.14660081E-01
  9.19999648E-01 -3.03068213E-03  1.00000000E+00  1.00000000E+00  1.00000000E+00
  1.00000000E+00  2.54938145E-02  1.90373109E-01  8.52161486E-01  1.00000000E+00
  1.00000000E+00  1.00000000E+00  2.54938145E-02  1.90373109E-01  8.52161486E-01
  1.00000000E+00  1.00000000E+00  1.00000000E+00  2.54938145E-02  1.90373109E-01
  8.52161486E-01  1.00000000E+00  1.00000000E+00  1.00000000E+00  2.54938145E-02
  1.90373109E-01  8.52161486E-01  1.00000000E+00  1.00000000E+00  1.00000000E+00
  2.54938145E-02  1.90373109E-01  8.52161486E-01  1.00000000E+00  1.00000000E+00
  1.00000000E+00  2.54938145E-02  1.90373109E-01  8.52161486E-01  1.00000000E+00
  1.00000000E+00  1.00000000E+00
P(S=P) Contraction coefficients            R   N=          62
  0.00000000E+00  0.00000000E+00  0.00000000E+00  0.00000000E+00  0.00000000E+00
  0.00000000E+00  4.02486927E-02  2.37593957E-01  8.15853851E-01  1.00000000E+00
  1.00000000E+00  1.00000000E+00  0.00000000E+00  0.00000000E+00  0.00000000E+00
  0.00000000E+00  0.00000000E+00  0.00000000E+00  0.00000000E+00  4.02486927E-02
  2.37593957E-01  8.15853851E-01  1.00000000E+00  1.00000000E+00  1.00000000E+00
  0.00000000E+00  0.00000000E+00  0.00000000E+00  0.00000000E+00  0.00000000E+00
  0.00000000E+00  0.00000000E+00  0.00000000E+00  0.00000000E+00  0.00000000E+00
  0.00000000E+00  0.00000000E+00  0.00000000E+00  0.00000000E+00  0.00000000E+00
  0.00000000E+00  0.00000000E+00  0.00000000E+00  0.00000000E+00  0.00000000E+00
  0.00000000E+00  0.00000000E+00  0.00000000E+00  0.00000000E+00  0.00000000E+00
  0.00000000E+00  0.00000000E+00  0.00000000E+00  0.00000000E+00  0.00000000E+00
  0.00000000E+00  0.00000000E+00  0.00000000E+00  0.00000000E+00  0.00000000E+00
  0.00000000E+00  0.00000000E+00
Coordinates of each shell                  R   N=         108
 -1.44542766E+00  1.01761085E-06 -8.00324759E-06 -1.44542766E+00  1.01761085E-06
 -8.00324759E-06 -1.44542766E+00  1.01761085E-06 -8.00324759E-06 -1.44542766E+00
  1.01761085E-06 -8.00324759E-06 -1.44542766E+00  1.01761085E-06 -8.00324759E-06
 -1.44542766E+00  1.01761085E-06 -8.00324759E-06  1.44542766E+00 -1.01914758E-06
  8.01735041E-06  1.44542766E+00 -1.01914758E-06  8.01735041E-06  1.44542766E+00
 -1.01914758E-06  8.01735041E-06  1.44542766E+00 -1.01914758E-06  8.01735041E-06
  1.44542766E+00 -1.01914758E-06  8.01735041E-06  1.44542766E+00 -1.01914758E-06
  8.01735041E-06 -2.19893497E+00  1.58260548E+00 -1.09535671E+00 -2.19893497E+00
  1.58260548E+00 -1.09535671E+00 -2.19893497E+00  1.58260548E+00 -1.09535671E+00
 -2.19893497E+00  1.58260548E+00 -1.09535671E+00 -2.19894677E+00 -1.73995702E+00
 -8.22812686E-01 -2.19894677E+00 -1.73995702E+00 -8.22812686E-01 -2.19894677E+00
 -1.73995702E+00 -8.22812686E-01 -2.19894677E+00 -1.73995702E+00 -8.22812686E-01
 -2.19887642E+00  1.57361024E-01  1.91825646E+00 -2.19887642E+00  1.57361024E-01
  1.91825646E+00 -2.19887642E+00  1.57361024E-01  1.91825646E+00 -2.19887642E+00
  1.57361024E-01  1.91825646E+00  2.19893504E+00 -1.58260476E+00  1.09535770E+00
  2.19893504E+00 -1.58260476E+00  1.09535770E+00  2.19893504E+00 -1.58260476E+00
  1.09535770E+00  2.19893504E+00 -1.58260476E+00  1.09535770E+00  2.19887640E+00
 -1.57362288E-01 -1.91825637E+00  2.19887640E+00 -1.57362288E-01 -1.91825637E+00
  2.19887640E+00 -1.57362288E-01 -1.91825637E+00  2.19887640E+00 -1.57362288E-01
 -1.91825637E+00  2.19894676E+00  1.73995758E+00  8.22811516E-01  2.19894676E+00
  1.73995758E+00  8.22811516E-01  2.19894676E+00  1.73995758E+00  8.22811516E-01
  2.19894676E+00  1.73995758E+00  8.22811516E-01
Alpha Orbital Energies                     R   N=          80
 -1.01589346E+01 -1.01587100E+01 -7.54288190E-01 -6.17954438E-01 -4.36666418E-01
 -4.36660329E-01 -3.71064372E-01 -3.45878193E-01 -3.45870694E-01  9.50845731E-03
  2.98549542E-02  4.91915267E-02  4.91998800E-02  7.94654753E-02  8.48531991E-02
  8.48574890E-02  1.34635082E-01  1.47656196E-01  1.47662448E-01  1.70540535E-01
  1.70543424E-01  2.20649454E-01  2.42029848E-01  2.54681512E-01  3.99163255E-01
  3.99174725E-01  4.49541295E-01  4.49547469E-01  4.50212370E-01  5.86934100E-01
  5.91559187E-01  5.91566102E-01  6.21427516E-01  6.21429178E-01  6.45144827E-01
  7.23617971E-01  8.37501606E-01  8.94991932E-01  9.59353017E-01  9.59355423E-01
  1.25126923E+00  1.25129071E+00  1.46299297E+00  1.46977639E+00  1.53338916E+00
  1.53340247E+00  1.53474207E+00  1.53475743E+00  1.55811357E+00  1.69404106E+00
  1.69405514E+00  1.72591566E+00  1.82646321E+00  1.82649008E+00  2.06469589E+00
  2.12011945E+00  2.12778566E+00  2.12781518E+00  2.31674102E+00  2.31676674E+00
  2.36057852E+00  2.47470316E+00  2.47470800E+00  2.48404877E+00  2.57508313E+00
  2.57509684E+00  2.60390336E+00  2.60392465E+00  2.65422512E+00  2.65426677E+00
  2.78500439E+00  2.81142091E+00  3.16759884E+00  3.79514216E+00  3.79516843E+00
  3.81561425E+00  3.81564121E+00  4.22511637E+00  2.39065043E+01  2.39968584E+01
Alpha MO coefficients                      R   N=        6400
  3.98081619E-01  3.27489588E-01  5.47450501E-04 -1.10720805E-08 -2.80103932E-08
  1.37644540E-02 -2.25669248E-03  1.13565846E-07  2.27180925E-07 -4.86746661E-03
  1.79258745E-04  3.96805458E-09 -3.02324286E-08 -2.67090459E-03  5.06737943E-04
 -3.62852542E-08 -1.09744643E-07  5.25230825E-04 -1.82751511E-08 -3.12069628E-08
 -9.09784723E-04 -2.47648857E-08  3.98082112E-01  3.27489994E-01 -5.47450291E-04
  1.10764838E-08  2.80123079E-08  1.37644702E-02  2.25669311E-03 -1.13574597E-07
 -2.27157430E-07 -4.86747677E-03 -1.79257012E-04 -3.99673624E-09  3.02629565E-08
 -2.67091666E-03 -5.06735954E-04  3.62731646E-08  1.09774863E-07  5.25230668E-04
 -1.82261271E-08 -3.12115861E-08 -9.09784691E-04 -2.48216435E-08  1.29243988E-04
 -2.87702568E-03  3.01181575E-03 -4.85642071E-04  1.34752501E-03 -9.32679298E-04
  1.29266069E-04 -2.87688151E-03  3.01172366E-03 -4.85623067E-04 -1.48144347E-03
 -7.00579608E-04  1.29226380E-04 -2.87708462E-03  3.01192554E-03 -4.85590792E-04
  1.33984149E-04  1.63338100E-03  1.29244214E-04 -2.87702811E-03  3.01181895E-03
  4.85642662E-04 -1.34752569E-03  9.32681041E-04  1.29226636E-04 -2.87708682E-03
  3.01192866E-03  4.85591230E-04 -1.33985322E-04 -1.63338239E-03  1.29266300E-04
 -2.87688387E-03  3.01172688E-03  4.85623567E-04  1.48144534E-03  7.00579283E-04
  3.98089664E-01  3.27566998E-01 -1.71999163E-04 -8.32936991E-09 -1.97061097E-08
  1.31528240E-02 -4.78213469E-04  9.31918814E-08  1.78466984E-07 -8.32484244E-03
 -1.41680811E-03 -1.23173540E-08 -7.11925497E-08 -1.01059254E-02 -1.71609047E-03
 -1.72192502E-08 -7.13886731E-08 -2.49004714E-05 -1.65536086E-08 -2.77483931E-08
  4.30991536E-05 -2.53301547E-08 -3.98089171E-01 -3.27566592E-01 -1.71999840E-04
 -8.32413874E-09 -1.97132351E-08 -1.31528069E-02 -4.78210701E-04  9.31482128E-08
  1.78489035E-07  8.32483640E-03 -1.41680834E-03 -1.23305662E-08 -7.12797409E-08
  1.01059221E-02 -1.71609105E-03 -1.72637518E-08 -7.14154635E-08  2.49011990E-05
  1.65006058E-08  2.77236185E-08 -4.31002792E-05  2.53865777E-08  1.87872293E-04
 -1.87516235E-03  2.60318517E-03 -4.01633770E-04  1.01982064E-03 -7.05858414E-04
  1.87889246E-04 -1.87504213E-03  2.60309563E-03 -4.01611958E-04 -1.12116247E-03
 -5.30199489E-04  1.87862373E-04 -1.87520754E-03  2.60327442E-03 -4.01627465E-04
  1.01400945E-04  1.23615882E-03 -1.87872128E-04  1.87515880E-03 -2.60318144E-03
 -4.01633180E-04  1.01981851E-03 -7.05857915E-04 -1.87862221E-04  1.87520385E-03
 -2.60327064E-03 -4.01626829E-04  1.01401593E-04  1.23615669E-03 -1.87889082E-04
  1.87503860E-03 -2.60309185E-03 -4.01611362E-04 -1.12116102E-03 -5.30197851E-04
 -8.17831180E-02 -1.26362319E-01  2.47157335E-02  5.06999527E-07  1.70890031E-06
  3.29426847E-01  4.65884371E-02  5.01719957E-07  6.66039797E-07  1.88349123E-01
  9.75389055E-03 -8.51399890E-07  2.65395613E-06  1.31857370E-02 -3.59836212E-03
  3.25878700E-08  8.91578614E-07 -4.16230684E-03 -5.58683956E-08 -1.45881740E-07
  7.20803753E-03 -2.09448964E-07 -8.17831176E-02 -1.26362318E-01 -2.47157335E-02
 -5.06405352E-07 -1.70980272E-06  3.29426846E-01 -4.65884370E-02 -5.01120309E-07
 -6.67154893E-07  1.88349122E-01 -9.75389080E-03  8.51866411E-07 -2.65472851E-06
  1.31857330E-02  3.59836328E-03 -3.24684251E-08 -8.91855737E-07 -4.16230715E-03
 -5.56863532E-08 -1.45809145E-07  7.20803757E-03 -2.09727818E-07  5.46573021E-02
  6.40080151E-02 -5.40671597E-03  5.36767719E-03 -8.74277916E-03  6.05102560E-03
  5.46563417E-02  6.40073441E-02 -5.40808551E-03  5.36777648E-03  9.61203828E-03
  4.54527910E-03  5.46585117E-02  6.40091336E-02 -5.41008927E-03  5.36782351E-03
 -8.69307360E-04 -1.05976084E-02  5.46573009E-02  6.40080136E-02 -5.40671542E-03
 -5.36767737E-03  8.74277507E-03 -6.05103070E-03  5.46585111E-02  6.40091331E-02
 -5.41008925E-03 -5.36782342E-03  8.69314143E-04  1.05976079E-02  5.46563416E-02
  6.40073439E-02 -5.40808544E-03 -5.36777648E-03 -9.61204125E-03 -4.54527280E-03
 -7.14103778E-02 -1.11039086E-01 -5.89416043E-02  1.14011848E-06  2.84047913E-06
  2.95850308E-01 -8.41516184E-02  1.84753926E-06  2.97146275E-06  1.95838840E-01
 -4.27400946E-02 -2.36384740E-07  2.34598883E-06  1.14593159E-01  2.66204197E-02
  1.04099589E-07  2.49309076E-07  5.66192445E-03 -9.90956783E-09 -2.39140107E-07
 -9.80726846E-03 -2.12745797E-07  7.14103781E-02  1.11039087E-01 -5.89416055E-02
  1.14033826E-06  2.84080775E-06 -2.95850309E-01 -8.41516200E-02  1.84775320E-06
  2.97222561E-06 -1.95838842E-01 -4.27400953E-02 -2.36195282E-07  2.34663844E-06
 -1.14593159E-01  2.66204195E-02  1.04405173E-07  2.49635469E-07 -5.66192401E-03
  9.78344760E-09  2.39075667E-07  9.80726851E-03  2.13165772E-07  7.45514509E-02
  9.27216561E-02  5.76980493E-03  1.86148366E-03 -1.00709114E-02  6.97050390E-03
  7.45500466E-02  9.27205163E-02  5.76875588E-03  1.86154375E-03  1.10724145E-02
  5.23612006E-03  7.45520319E-02  9.27222213E-02  5.76849706E-03  1.86124539E-03
 -1.00125434E-03 -1.22072150E-02 -7.45514529E-02 -9.27216585E-02 -5.76980519E-03
  1.86148436E-03 -1.00709070E-02  6.97051061E-03 -7.45520312E-02 -9.27222206E-02
 -5.76849684E-03  1.86124514E-03 -1.00126256E-03 -1.22072143E-02 -7.45500471E-02
 -9.27205167E-02 -5.76875609E-03  1.86154370E-03  1.10724183E-02  5.23611236E-03
  1.58772387E-07  1.72574164E-07  3.02153961E-07  1.44380460E-01 -2.24016444E-02
  2.14688570E-07  7.42654517E-09  2.08408057E-01 -3.23354385E-02 -4.79608394E-06
 -2.69980063E-06  1.35934331E-01 -2.10927593E-02  3.47566202E-05  9.76604343E-06
  8.34816604E-03 -1.29388762E-03  9.29617972E-04 -2.57653819E-04 -1.16876744E-02
  5.36703736E-04  1.66188191E-03 -1.58460435E-07 -1.72087875E-07  2.92728820E-07
  1.44380463E-01 -2.24016378E-02 -2.15936509E-07 -5.83020535E-09  2.08408061E-01
 -3.23354294E-02  4.79427163E-06 -2.70798456E-06  1.35934333E-01 -2.10927737E-02
 -3.47567715E-05  9.76551123E-06  8.34816508E-03 -1.29390161E-03 -9.29640607E-04
  2.57654685E-04  1.16876714E-02 -5.36716446E-04 -1.66188086E-03  1.00019734E-01
  1.33038557E-01  4.56484025E-02  6.21250137E-03 -3.59249328E-03  7.18435892E-03
 -9.20143162E-02 -1.22392751E-01 -4.19975607E-02 -5.71534029E-03 -3.73414101E-03
 -7.26031724E-03 -8.00577996E-03 -1.06481170E-02 -3.65602064E-03 -4.97169458E-04
  8.84684117E-03 -1.60059722E-04 -1.00019703E-01 -1.33038513E-01 -4.56483772E-02
  6.21249851E-03 -3.59248384E-03  7.18436449E-03  8.00569758E-03  1.06480004E-02
  3.65595994E-03 -4.97163027E-04  8.84684099E-03 -1.60071804E-04  9.20143606E-02
  1.22392813E-01  4.19975924E-02 -5.71534465E-03 -3.73415092E-03 -7.26031122E-03
  1.32092900E-06  2.15018013E-06  1.78534265E-06  2.24012913E-02  1.44381270E-01
 -7.23363252E-06  1.96202977E-06  3.23359396E-02  2.08408290E-01  4.27955949E-06
  4.34018968E-06  2.10887602E-02  1.35932828E-01  2.71790573E-06  5.88884619E-07
  1.29682186E-03  8.34872789E-03  1.01228173E-02  1.66270092E-03  1.07391815E-03
  5.84356744E-03  2.58084623E-04 -1.32177733E-06 -2.15150427E-06  1.78956721E-06
  2.24012894E-02  1.44381263E-01  7.23740291E-06  1.96762593E-06  3.23359374E-02
  2.08408279E-01 -4.27719693E-06  4.34363432E-06  2.10887775E-02  1.35932817E-01
 -2.71841796E-06  5.89445034E-07  1.29683526E-03  8.34872464E-03 -1.01228152E-02
 -1.66270205E-03 -1.07394301E-03 -5.84356598E-03 -2.58085124E-04 -4.85021945E-02
 -6.45161831E-02 -2.21396685E-02 -3.01267541E-03  7.34243586E-03  4.60672605E-03
 -6.23677484E-02 -8.29624073E-02 -2.84672707E-02 -3.87423364E-03 -7.10371929E-03
  4.74771356E-03  1.10870323E-01  1.47475191E-01  5.06029970E-02  6.88655732E-03
 -2.73612237E-06 -7.83317496E-03  4.85022582E-02  6.45162742E-02  2.21397178E-02
 -3.01268108E-03  7.34244108E-03  4.60671631E-03 -1.10870321E-01 -1.47475189E-01
 -5.06029981E-02  6.88655743E-03 -2.74710258E-06 -7.83317422E-03  6.23676832E-02
  8.29623155E-02  2.84672239E-02 -3.87422777E-03 -7.10371312E-03  4.74772320E-03
 -9.92106710E-03 -1.58593393E-02  1.89168715E-01 -2.43412388E-06  1.18349461E-05
  5.12485176E-02  2.76652660E-01 -3.34564969E-06  1.58171699E-05  2.75357455E-02
  1.82345970E-01 -4.51563462E-06  1.34123096E-05 -1.11565885E-02  1.03209513E-02
 -1.36566236E-06  1.27144615E-06 -9.93372930E-03 -2.12441522E-06  6.65187242E-07
  1.72085285E-02  6.22694561E-07 -9.92106805E-03 -1.58593408E-02 -1.89168715E-01
  2.42638274E-06 -1.18301553E-05  5.12485217E-02 -2.76652660E-01  3.33429271E-06
 -1.58097937E-05  2.75357511E-02 -1.82345971E-01  4.50733960E-06 -1.34072072E-05
 -1.11565903E-02 -1.03209509E-02  1.36494438E-06 -1.27089928E-06 -9.93372883E-03
 -2.12466761E-06  6.64720793E-07  1.72085282E-02  6.23185208E-07 -5.10095412E-02
 -7.38697460E-02 -3.50460878E-02  8.74061459E-03  5.70376361E-03 -3.94725012E-03
 -5.10050914E-02 -7.38640702E-02 -3.50458023E-02  8.74075544E-03 -6.27081037E-03
 -2.96497239E-03 -5.09874503E-02 -7.38397574E-02 -3.50312428E-02  8.74226097E-03
  5.66806856E-04  6.91160384E-03 -5.10095380E-02 -7.38697412E-02 -3.50460847E-02
 -8.74061439E-03 -5.70376144E-03  3.94725382E-03 -5.09874505E-02 -7.38397583E-02
 -3.50312429E-02 -8.74226077E-03 -5.66811698E-04 -6.91160325E-03 -5.10050941E-02
 -7.38640741E-02 -3.50458036E-02 -8.74075516E-03  6.27081216E-03  2.96496891E-03
 -2.14322559E-07 -3.85961103E-07  4.09363432E-06  1.44399933E-01 -1.43688379E-02
  1.78061747E-06  6.25684933E-06  2.03145030E-01 -2.02148191E-02 -2.27791605E-06
  3.98732221E-06  1.53465317E-01 -1.52711161E-02 -1.87778055E-06  1.69413512E-07
  1.64680295E-02 -1.63738624E-03  2.10682469E-03  2.29413657E-03 -1.65063768E-02
  1.21702570E-03 -2.30555426E-02 -2.13712472E-07 -3.84996909E-07 -4.09215339E-06
 -1.44399931E-01  1.43688327E-02  1.77784136E-06 -6.25493128E-06 -2.03145027E-01
  2.02148111E-02 -2.28073753E-06 -3.98590665E-06 -1.53465316E-01  1.52710999E-02
 -1.87914580E-06 -1.68946940E-07 -1.64680299E-02  1.63738086E-03  2.10684915E-03
  2.29413665E-03 -1.65063717E-02  1.21704089E-03 -2.30555437E-02  1.15010989E-01
  1.68888648E-01  1.00825805E-01  5.36337817E-03 -2.66615245E-03  7.31748351E-03
 -1.12733770E-01 -1.65545922E-01 -9.88271609E-02 -5.25659189E-03 -3.59046153E-03
 -6.98325207E-03 -2.28053703E-03 -3.34756853E-03 -1.99866603E-03 -1.05833862E-04
  9.25718467E-03 -6.33079443E-04  1.15010944E-01  1.68888586E-01  1.00825774E-01
 -5.36337770E-03  2.66614180E-03 -7.31748837E-03 -2.28044995E-03 -3.34744834E-03
 -1.99860680E-03  1.05832310E-04 -9.25718365E-03  6.33090553E-04 -1.12733815E-01
 -1.65545984E-01 -9.88271913E-02  5.25659270E-03  3.59047131E-03  6.98324496E-03
  1.92723811E-06  3.12084994E-06 -1.67206028E-05  1.43684638E-02  1.44400580E-01
 -9.78543669E-06 -2.50041911E-05  2.02135883E-02  2.03145581E-01 -8.92089445E-06
 -1.66597001E-05  1.52701706E-02  1.53464430E-01 -1.45397523E-06 -1.74466461E-06
  1.64001786E-03  1.64727868E-02  1.42972399E-02 -2.30545573E-02  2.43349571E-03
  8.25167221E-03 -2.29422512E-03  1.92741069E-06  3.12111391E-06  1.67187952E-05
 -1.43684542E-02 -1.44400588E-01 -9.78627543E-06  2.50021019E-05 -2.02135737E-02
 -2.03145594E-01 -8.91862916E-06  1.66579199E-05 -1.52701490E-02 -1.53464442E-01
 -1.44233207E-06  1.74153204E-06 -1.64001184E-03 -1.64727884E-02  1.42972376E-02
 -2.30545571E-02  2.43352510E-03  8.25166989E-03 -2.29422436E-03 -6.37652479E-02
 -9.36380621E-02 -5.59023441E-02 -2.97452427E-03  7.51648876E-03  4.66776562E-03
 -6.77124080E-02 -9.94363689E-02 -5.93626990E-02 -3.15869638E-03 -6.78390635E-03
  5.59149022E-03  1.31493202E-01  1.93096580E-01  1.15278585E-01  6.13028792E-03
 -4.33918170E-04 -7.25766859E-03 -6.37653299E-02 -9.36381757E-02 -5.59024016E-02
  2.97452627E-03 -7.51649364E-03 -4.66775599E-03  1.31493210E-01  1.93096592E-01
  1.15278591E-01 -6.13028806E-03  4.33930365E-04  7.25766823E-03 -6.77123308E-02
 -9.94362626E-02 -5.93626469E-02  3.15869491E-03  6.78390046E-03 -5.59150071E-03
  2.76931970E-02  4.55123471E-02  4.47470393E-02  2.47293931E-06 -1.23187626E-07
 -1.40240849E-01  7.82517873E-02 -3.60354769E-06 -6.04326923E-06 -3.52201253E-01
  7.90285529E-02  4.16769624E-05 -1.48091133E-06  1.30462068E+00 -1.39605633E-01
  6.21599185E-05  1.37986985E-04  1.92800150E-03  1.32098282E-06  1.41349368E-07
 -3.34397730E-03  4.97184955E-07  2.76931973E-02  4.55123476E-02 -4.47470393E-02
 -2.47424395E-06  1.26580262E-07 -1.40240850E-01 -7.82517880E-02  3.60123720E-06
  6.04947013E-06 -3.52201259E-01 -7.90285503E-02 -4.16781644E-05  1.48552974E-06
  1.30462063E+00  1.39605664E-01 -6.21559850E-05 -1.38008866E-04  1.92800204E-03
  1.32026230E-06  1.41436953E-07 -3.34397711E-03  4.97790676E-07 -9.13386833E-03