Geo opt and freq calc of amoniak                                        
Freq      RB3LYP                                                      6-311+G(d,p)        
Number of atoms                            I                4
Charge                                     I                0
Multiplicity                               I                1
Number of electrons                        I               10
Number of alpha electrons                  I                5
Number of beta electrons                   I                5
Number of basis functions                  I               40
Number of independant functions            I               40
Number of point charges in /Mol/           I                0
Number of translation vectors              I                0
Info1-9                                    I   N=           9
          13          11        1002           0           0         100
           6          18        -501
Num ILSW                                   I              100
ILSW                                       I   N=         100
           0           0           0           0           2           0
           0           0           0           0         402      200000
           0           0           0           0           0           0
           0      800000           0           0           1           0
           1           0           0           0     1000000           0
           0           0      100000           0          -1           0
           0           0           0           0           0           0
           0           0           0           1           0           0
           0           0           1      720000      810000           0
           0           0           0           0           0           0
           0           0           0           0           0           0
           0           0           0           0           0           0
           0           0           0           0           0           0
           0           0           0           0           0           0
           0           0           0           0           0           0
           0           0           0           0           0           0
           0           0           0           0
Number of contracted shells                I               18
Highest angular momentum                   I                2
Largest degree of contraction              I                6
Number of primitive shells                 I               31
Pure/Cartesian d shells                    I                0
Pure/Cartesian f shells                    I                0
Virial Ratio                               R      2.004287430633407E+00
SCF Energy                                 R     -5.658263560507737E+01
Total Energy                               R     -5.658263560507737E+01
RMS Force                                  R      2.680143378786823E-05
RMS Density                                R      9.527268845140691E-10
Atomic numbers                             I   N=           4
           7           1           1           1
Nuclear charges                            R   N=           4
  7.00000000E+00  1.00000000E+00  1.00000000E+00  1.00000000E+00
Current cartesian coordinates              R   N=          12
  6.14905839E-08 -3.78376023E-05 -2.05755522E-01 -2.23993227E-05  1.79042587E+00
  4.80028576E-01  1.55059860E+00 -8.95061229E-01  4.80130135E-01 -1.55057663E+00
 -8.95099775E-01  4.80129946E-01
Int Atom Types                             I   N=           4
           0           0           0           0
Force Field                                I                0
MM charges                                 R   N=           4
  0.00000000E+00  0.00000000E+00  0.00000000E+00  0.00000000E+00
Integer atomic weights                     I   N=           4
          14           1           1           1
Real atomic weights                        R   N=           4
  1.40030740E+01  1.00782504E+00  1.00782504E+00  1.00782504E+00
Atom residue info                          I   N=           4
           0           0           0           0
Atom fragment info                         I   N=           4
           0           0           0           0
Atom residue num                           I   N=           4
           0           0           0           0
Nuclear spins                              I   N=           4
           2           1           1           1
Nuclear ZEff                               R   N=           4
 -4.55000000E+00 -1.00000000E+00 -1.00000000E+00 -1.00000000E+00
Nuclear QMom                               R   N=           4
  2.04400000E+00  0.00000000E+00  0.00000000E+00  0.00000000E+00
Nuclear GFac                               R   N=           4
  4.03761000E-01  2.79284600E+00  2.79284600E+00  2.79284600E+00
MicOpt                                     I   N=           4
          -1          -1          -1          -1
Constraint Structure                       R   N=          12
  6.14905839E-08 -3.78376023E-05 -2.05755522E-01 -2.23993227E-05  1.79042587E+00
  4.80028576E-01  1.55059860E+00 -8.95061229E-01  4.80130135E-01 -1.55057663E+00
 -8.95099775E-01  4.80129946E-01
ONIOM Charges                              I   N=          16
           0           0           0           0           0           0
           0           0           0           0           0           0
           0           0           0           0
ONIOM Multiplicities                       I   N=          16
           1           0           0           0           0           0
           0           0           0           0           0           0
           0           0           0           0
Atom Layers                                I   N=           4
           0           0           0           0
Atom Modifiers                             I   N=           4
           0           0           0           0
Int Atom Modified Types                    I   N=           4
           0           0           0           0
Link Atoms                                 I   N=           4
           0           0           0           0
Atom Modified MM Charges                   R   N=           4
  0.00000000E+00  0.00000000E+00  0.00000000E+00  0.00000000E+00
Link Distances                             R   N=          16
  0.00000000E+00  0.00000000E+00  0.00000000E+00  0.00000000E+00  0.00000000E+00
  0.00000000E+00  0.00000000E+00  0.00000000E+00  0.00000000E+00  0.00000000E+00
  0.00000000E+00  0.00000000E+00  0.00000000E+00  0.00000000E+00  0.00000000E+00
  0.00000000E+00
MxBond                                     I                3
NBond                                      I   N=           4
           3           1           1           1
IBond                                      I   N=          12
           2           3           4           1           0           0
           1           0           0           1           0           0
RBond                                      R   N=          12
  1.00000000E+00  1.00000000E+00  1.00000000E+00  1.00000000E+00  0.00000000E+00
  0.00000000E+00  1.00000000E+00  0.00000000E+00  0.00000000E+00  1.00000000E+00
  0.00000000E+00  0.00000000E+00
Shell types                                I   N=          18
           0          -1          -1          -1          -1          -2
           0           0           0           1           0           0
           0           1           0           0           0           1
Number of primitives per shell             I   N=          18
           6           3           1           1           1           1
           3           1           1           1           3           1
           1           1           3           1           1           1
Shell to atom map                          I   N=          18
           1           1           1           1           1           1
           2           2           2           2           3           3
           3           3           4           4           4           4
Primitive exponents                        R   N=          31
  6.29348000E+03  9.49044000E+02  2.18776000E+02  6.36916000E+01  1.88282000E+01
  2.72023000E+00  3.06331000E+01  7.02614000E+00  2.11205000E+00  6.84009000E-01
  2.00878000E-01  6.39000000E-02  9.13000000E-01  3.38650000E+01  5.09479000E+00
  1.15879000E+00  3.25840000E-01  1.02741000E-01  7.50000000E-01  3.38650000E+01
  5.09479000E+00  1.15879000E+00  3.25840000E-01  1.02741000E-01  7.50000000E-01
  3.38650000E+01  5.09479000E+00  1.15879000E+00  3.25840000E-01  1.02741000E-01
  7.50000000E-01
Contraction coefficients                   R   N=          31
  1.96978815E-03  1.49612859E-02  7.35005308E-02  2.48936766E-01  6.02459433E-01
  2.56201759E-01  1.11906080E-01  9.21666655E-01 -2.56919183E-03  1.00000000E+00
  1.00000000E+00  1.00000000E+00  1.00000000E+00  2.54938145E-02  1.90373109E-01
  8.52161486E-01  1.00000000E+00  1.00000000E+00  1.00000000E+00  2.54938145E-02
  1.90373109E-01  8.52161486E-01  1.00000000E+00  1.00000000E+00  1.00000000E+00
  2.54938145E-02  1.90373109E-01  8.52161486E-01  1.00000000E+00  1.00000000E+00
  1.00000000E+00
P(S=P) Contraction coefficients            R   N=          31
  0.00000000E+00  0.00000000E+00  0.00000000E+00  0.00000000E+00  0.00000000E+00
  0.00000000E+00  3.83119186E-02  2.37403116E-01  8.17592398E-01  1.00000000E+00
  1.00000000E+00  1.00000000E+00  0.00000000E+00  0.00000000E+00  0.00000000E+00
  0.00000000E+00  0.00000000E+00  0.00000000E+00  0.00000000E+00  0.00000000E+00
  0.00000000E+00  0.00000000E+00  0.00000000E+00  0.00000000E+00  0.00000000E+00
  0.00000000E+00  0.00000000E+00  0.00000000E+00  0.00000000E+00  0.00000000E+00
  0.00000000E+00
Coordinates of each shell                  R   N=          54
  6.14905839E-08 -3.78376023E-05 -2.05755522E-01  6.14905839E-08 -3.78376023E-05
 -2.05755522E-01  6.14905839E-08 -3.78376023E-05 -2.05755522E-01  6.14905839E-08
 -3.78376023E-05 -2.05755522E-01  6.14905839E-08 -3.78376023E-05 -2.05755522E-01
  6.14905839E-08 -3.78376023E-05 -2.05755522E-01 -2.23993227E-05  1.79042587E+00
  4.80028576E-01 -2.23993227E-05  1.79042587E+00  4.80028576E-01 -2.23993227E-05
  1.79042587E+00  4.80028576E-01 -2.23993227E-05  1.79042587E+00  4.80028576E-01
  1.55059860E+00 -8.95061229E-01  4.80130135E-01  1.55059860E+00 -8.95061229E-01
  4.80130135E-01  1.55059860E+00 -8.95061229E-01  4.80130135E-01  1.55059860E+00
 -8.95061229E-01  4.80130135E-01 -1.55057663E+00 -8.95099775E-01  4.80129946E-01
 -1.55057663E+00 -8.95099775E-01  4.80129946E-01 -1.55057663E+00 -8.95099775E-01
  4.80129946E-01 -1.55057663E+00 -8.95099775E-01  4.80129946E-01
Alpha Orbital Energies                     R   N=          40
 -1.42951939E+01 -8.57309170E-01 -4.69778831E-01 -4.69747425E-01 -2.70182029E-01
  1.09948930E-02  8.66368472E-02  8.66453887E-02  1.14185444E-01  1.50297586E-01
  1.50317690E-01  1.98217401E-01  4.88215785E-01  4.88249426E-01  6.09839728E-01
  7.14074830E-01  7.14083051E-01  7.53814770E-01  9.26854774E-01  1.11299261E+00
  1.11305521E+00  1.51027742E+00  1.57612034E+00  1.66966290E+00  1.66971433E+00
  1.91835197E+00  1.91842597E+00  2.25224255E+00  2.48068612E+00  2.48074421E+00
  2.60762514E+00  2.65334253E+00  2.65334966E+00  2.81908429E+00  3.03379008E+00
  3.03383360E+00  4.01043367E+00  4.71895567E+00  4.71911658E+00  3.56146112E+01
Alpha MO coefficients                      R   N=        1600
  5.57374069E-01  4.65750600E-01 -2.22024961E-10  7.86667718E-08  1.20471773E-03
  1.50846714E-02  1.07423330E-09 -4.63752068E-08  1.26279974E-03 -1.62669444E-03
  1.60333578E-10  9.10215927E-08  1.09042501E-03 -3.94287707E-03 -1.35820150E-10
 -1.59897225E-07 -1.29601607E-03 -8.11147515E-04  4.45673400E-10 -6.58780774E-08
  2.98374689E-07 -6.36498722E-10  8.20696091E-05 -3.09767512E-03  2.82594116E-03
 -2.28244178E-08  1.81747251E-03  5.82268472E-04  8.19980895E-05 -3.09811807E-03
  2.82613662E-03  1.57428791E-03 -9.08714353E-04  5.82501134E-04  8.19985706E-05
 -3.09811556E-03  2.82613499E-03 -1.57426427E-03 -9.08752614E-04  5.82500278E-04
 -1.11958305E-01 -1.75905700E-01  5.65803944E-09  3.88881556E-06  4.53496701E-02
  4.84012481E-01  5.06821268E-09  6.05553888E-06  6.71762795E-02  3.15149344E-01
  1.19333225E-09  2.41951228E-06  2.73124712E-02  4.53459279E-02 -1.94543714E-09
  2.12224800E-06  9.80450628E-03 -5.59640477E-03  2.16782848E-09  1.43142780E-07
  1.86734434E-06 -3.17926858E-09  9.30059698E-02  9.42745019E-02 -1.41532185E-02
  2.53216565E-07 -2.02052399E-02 -4.65058236E-03  9.30096792E-02  9.42757085E-02
 -1.41521000E-02 -1.74987060E-02  1.01011650E-02 -4.65183768E-03  9.30096488E-02
  9.42756911E-02 -1.41520991E-02  1.74984557E-02  1.01015982E-02 -4.65183436E-03
 -8.59303157E-10 -1.22813667E-09  2.22269326E-01 -1.57631776E-04  2.90706919E-08
  2.35446679E-09  3.19477685E-01 -2.26570167E-04  4.06523656E-08 -4.87455148E-09
  1.99190434E-01 -1.41262427E-04  2.55943253E-08  5.58244604E-10  2.01729100E-02
 -1.43050624E-05  2.03284673E-09  4.46353381E-09  2.31136565E-02 -1.63923568E-05
  1.03215308E-05 -1.38249343E-02 -1.26220250E-04 -1.72416624E-04 -6.05350452E-05
  1.80431884E-02  1.24819835E-05  6.75900572E-06  1.51534549E-01  2.06986892E-01
  7.26708315E-02 -8.23718904E-03  1.51576675E-02 -8.11429135E-03 -1.51408347E-01
 -2.06814535E-01 -7.26103195E-02 -8.21493637E-03 -1.51712796E-02  8.10753331E-03
  2.78341578E-06  4.44876873E-06  1.57625581E-04  2.22269886E-01 -9.40541672E-06
 -1.23169893E-05  2.26564960E-04  3.19480753E-01 -1.39101493E-05 -1.81547898E-05
  1.41272395E-04  1.99207312E-01 -1.11072001E-05 -6.51873919E-06  1.43090575E-05
  2.01753438E-02 -8.94510631E-07 -1.78657974E-06  1.63894598E-05  2.31114666E-02
 -1.38299999E-02 -1.03220098E-05  1.74901341E-01  2.38918703E-01  8.38959968E-02
  1.32347596E-05 -1.69816767E-02 -9.36338225E-03 -8.73373372E-02 -1.19297560E-01
 -4.18893017E-02  1.51579479E-02  9.30139532E-03  4.67590381E-03 -8.75559334E-02
 -1.19596168E-01 -4.19941544E-02 -1.51700507E-02  9.27913149E-03  4.68760621E-03
  3.69473366E-02  5.97976553E-02 -1.92692236E-08  8.31840865E-06  2.58296031E-01
 -1.82813769E-01 -2.78666009E-08  1.19821921E-05  3.73165052E-01 -2.03118693E-01
 -3.01668571E-08  1.49628492E-05  3.86100317E-01  6.93386362E-02 -1.62737596E-08
  1.33964986E-05  1.44319096E-01  1.70421219E-02 -2.03609686E-09  1.85567285E-06
  8.26176463E-07 -1.02241376E-09  4.03194168E-02  4.41596834E-02 -1.74051731E-02
  9.16450324E-08 -7.52869889E-03  2.39781770E-02  4.03244390E-02  4.41658614E-02
 -1.73961973E-02 -6.52146146E-03  3.76599974E-03  2.39776499E-02  4.03244351E-02
  4.41658679E-02 -1.73961879E-02  6.52136353E-03  3.76616159E-03  2.39776480E-02
  4.22814936E-02  6.84100596E-02  3.02263222E-08 -1.13764152E-05 -6.45512679E-02
 -1.80858048E-01  3.36327567E-08 -1.88275933E-05 -1.23176214E-01 -7.99265462E-01
  9.11886193E-08 -3.27106753E-05 -1.65744450E-01  2.73999483E+00 -5.46337531E-08
  1.38265361E-04  6.69410364E-01  5.64597998E-03 -1.88002836E-09 -1.15701159E-06
 -2.53068060E-06  6.10969757E-09  8.57220898E-04  1.80855159E-01 -6.61964884E-01
 -3.37301720E-08  2.83974679E-03  2.49750703E-04  8.57114879E-04  1.80849289E-01
 -6.61926758E-01  2.45795735E-03 -1.41794167E-03  2.48419877E-04  8.57132820E-04
  1.80849277E-01 -6.61926428E-01 -2.45793056E-03 -1.41800946E-03  2.48426466E-04
 -9.41559060E-10 -1.04213682E-09 -1.13912799E-01  4.58493085E-05 -1.33049213E-08
 -7.71676078E-09 -1.47551029E-01  5.93932909E-05 -1.77457939E-08  6.51159157E-08
 -4.62621513E-01  1.86200708E-04 -4.22494738E-08  3.59971192E-07  1.46884617E+00
 -5.91440971E-04  2.69771640E-07 -1.97524175E-09 -1.68868929E-02  6.79998111E-06
 -5.02771859E-06  1.14239209E-02  1.18749311E-05 -4.39440142E-05  1.91606196E-04
  1.26394373E-02 -3.63467705E-06 -4.52410738E-08 -2.47857568E-02  9.17022695E-02
 -3.99821279E-01  1.00162326E-02  1.50939873E-03  1.02854713E-04  2.47738569E-02
 -9.16583441E-02  3.99629264E-01  1.00175311E-02 -1.51891767E-03 -1.02801721E-04
 -4.10903614E-06 -6.54084783E-06 -4.58749506E-05 -1.13921554E-01 -2.02832644E-06
  1.72867421E-05 -5.94128467E-05 -1.47552185E-01  1.12639227E-06  8.22461070E-05
 -1.86309112E-04 -4.62657701E-01 -1.45869467E-05  9.35496590E-06  5.91197577E-04
  1.46871459E+00  3.98270497E-05  9.74763854E-07 -6.79581591E-06 -1.68837890E-02
  1.14256331E-02  5.02340257E-06 -2.86097133E-02  1.05847072E-01 -4.61412935E-01
  5.12935776E-06  9.14403376E-03  1.20166581E-04  1.42922754E-02 -5.28748119E-02
  2.30450705E-01  1.51585225E-03  1.17654310E-02 -6.01753090E-05  1.43128261E-02
 -5.29508899E-02  2.30782026E-01 -1.50782710E-03  1.17641430E-02 -6.02642778E-05
 -2.71095563E-02 -4.28440077E-02  6.70710259E-09  5.58263126E-06 -1.08114619E-01
  9.81495705E-02  1.02389568E-08  9.36962588E-06 -1.06205455E-01  6.47287697E-01
  3.91411193E-08  1.54659369E-05 -4.08370694E-01  8.39585018E-01 -3.72754439E-07
 -2.66982987E-05  1.41888829E+00 -6.96879905E-03  3.62165378E-09  2.88980703E-07
 -1.04748145E-06 -4.28192003E-09 -2.46024344E-02 -4.38600577E-04 -6.49500499E-01
 -5.95745552E-09  2.06470659E-04  9.13231927E-03 -2.46094734E-02 -4.37359667E-04
 -6.49578448E-01  1.79415603E-04 -1.05169184E-04  9.13309417E-03 -2.46094861E-02
 -4.37339947E-04 -6.49578757E-01 -1.79410823E-04 -1.05168477E-04  9.13309139E-03
 -3.00065448E-06 -4.69187818E-06 -1.20085006E-04 -1.35755267E-01  1.33626593E-05
  7.05628188E-06 -1.26594234E-04 -1.43111295E-01  1.51767076E-05  1.19063537E-04
 -6.30276240E-04 -7.12527638E-01  7.25775201E-05  2.47789816E-04 -1.48315244E-03
 -1.67650926E+00  8.75411743E-05  5.13646939E-07  9.18338283E-06  1.03805757E-02
 -2.69558811E-02 -2.48489162E-05  9.13655643E-02  1.35337813E-01  3.01929259E+00
 -2.15598631E-05  2.01046918E-02  1.67902946E-02 -4.56195942E-02 -6.75852593E-02
 -1.50747833E+00 -1.89836417E-02 -1.28092153E-02 -8.38000287E-03 -4.57615557E-02
 -6.77955493E-02 -1.51216946E+00  1.90003517E-02 -1.27746712E-02 -8.40608918E-03
 -1.02500361E-09 -1.79576377E-09 -1.35757904E-01  1.20090052E-04  1.78540472E-09
  1.65769921E-08 -1.43106249E-01  1.26588014E-04 -2.05350313E-09 -8.47494187E-08
 -7.12636098E-01  6.30394709E-04 -1.36069937E-08  1.39787826E-06 -1.67677331E+00
  1.48309417E-03  2.10799597E-08  8.80333829E-09  1.03832223E-02 -9.18385168E-06
  2.48447598E-05 -2.69493735E-02 -8.19615278E-05 -1.21386118E-04 -2.70933322E-03
 -2.37515403E-02 -1.83345600E-05 -1.50644263E-05  7.91567800E-02  1.17268673E-01
  2.61654069E+00  9.15665528E-03 -1.89787120E-02  1.45520897E-02 -7.90748668E-02
 -1.17147238E-01 -2.61383305E+00  9.12212078E-03  1.90018845E-02 -1.45370271E-02
 -3.90450954E-02 -6.14278816E-02  1.50993923E-08  2.00609831E-05  9.00023455E-02
  1.17342787E-01  8.83501217E-09  2.40837323E-05  1.03668937E-01  1.46570910E+00
  1.68638376E-07  8.95856728E-05  5.22761095E-01  6.58396021E+00  9.48294662E-08
  3.97650045E-04  1.11877165E+00  2.10343285E-02 -1.56134165E-09 -5.81958272E-07
 -3.80108439E-07  5.17413921E-09 -6.71519907E-02 -8.81384840E-02 -3.06540305E+00
  1.03517704E-07 -7.80105445E-03  7.49441612E-03 -6.71471899E-02 -8.81701664E-02
 -3.06499506E+00 -6.75688152E-03  3.89783506E-03  7.50131401E-03 -6.71471679E-02
 -8.81700849E-02 -3.06499340E+00  6.75677957E-03  3.89799254E-03  7.50131449E-03
  4.21922885E-07  9.40777435E-07  6.09035200E-05  8.26213686E-02 -8.40346375E-07
  4.73440570E-06  1.43499742E-04  1.94686015E-01 -6.37972418E-06 -1.23557527E-04
  7.51612232E-04  1.01983909E+00 -1.19126083E-04  4.00602081E-04 -1.35078439E-03
 -1.83266273E+00  1.71721999E-04 -1.15006345E-07 -3.33503860E-06 -4.52343373E-03
  2.74184044E-02  2.12322181E-05 -1.24934854E-01 -1.77097137E+00  3.31715200E+00
  3.19111006E-05  3.45826500E-02  1.94032568E-03  6.23980319E-02  8.84493816E-01
 -1.65671383E+00  3.73451754E-03  4.10271864E-02 -9.79587956E-04  6.25602184E-02
  8.86792860E-01 -1.66102015E+00 -3.68047241E-03  4.10215055E-02 -9.82107057E-04
  6.17507279E-09  9.89347867E-09  8.26025580E-02 -6.08721685E-05 -7.00451518E-09
 -6.53596784E-08  1.94660956E-01 -1.43462360E-04  5.82448052E-09  5.22746984E-07
  1.02019864E+00 -7.51965700E-04  3.34281696E-07  2.41280581E-07 -1.83286704E+00
  1.35083722E-03 -1.76368230E-07 -6.33282689E-09 -4.52359134E-03  3.33288817E-06
 -2.12244731E-05  2.74121525E-02  9.36340610E-05  1.32740240E-03 -2.48640527E-03
  4.31654453E-02 -2.53824677E-05 -1.44541595E-06 -1.08239908E-01 -1.53463492E+00
  2.87414541E+00  3.67520220E-02  3.68270997E-03  1.68504523E-03  1.08146278E-01
  1.53330718E+00 -2.87165960E+00  3.67576229E-02 -3.74332607E-03 -1.68354774E-03
  2.82972150E-02  4.85035229E-02  7.30112642E-08 -1.27865390E-05  7.00663263E-03
 -4.75725599E-02  1.46615894E-07 -2.73659069E-05  6.07230255E-03 -1.48233120E+00
 -4.06437860E-07 -2.50846823E-04 -9.56739106E-01  4.90964355E+00 -1.10982191E-07
  3.38826793E-04  1.20151745E+00 -2.87178200E-02 -8.54539927E-09  3.56273929E-07
  1.18392760E-06  1.11680016E-08  8.89989241E-02  1.71528231E+00 -2.66211593E+00
  4.85385194E-07 -3.92046225E-02 -4.89410385E-02  8.89901561E-02  1.71497857E+00
 -2.66169208E+00 -3.39330790E-02  1.95984331E-02 -4.89585143E-02  8.89901668E-02
  1.71497825E+00 -2.66169225E+00  3.39325313E-02  1.95992441E-02 -4.89584627E-02
 -1.68905108E-09 -5.60261626E-09 -2.73226368E-01 -6.45605141E-05  4.98984536E-08
  1.77289783E-07 -7.70669424E-01 -1.82141574E-04  1.43049413E-07 -9.70947462E-07
  1.92186611E+00  4.54264757E-04 -5.96818736E-07  7.61681657E-07 -3.21785402E-01
 -7.63831598E-05  3.39368055E-07 -3.66669527E-10  2.74398897E-02  6.47023954E-06
 -7.83302017E-06 -3.93867798E-02  7.63862936E-06 -6.17836719E-05 -1.84057599E-04
 -2.06222528E-02  3.26917701E-05  1.46643947E-05  2.95870034E-02 -2.40422510E-01
 -7.12585262E-01  1.05413704E-01 -7.27460909E-02  5.68729777E-02 -2.95946301E-02
  2.40486007E-01  7.12768142E-01  1.05444590E-01  7.27583355E-02 -5.68877251E-02
  1.11491707E-06  2.43556890E-06  6.45837137E-05 -2.73216765E-01 -1.90116970E-06
 -4.66921790E-05  1.82136475E-04 -7.70686481E-01  1.36496196E-06  2.63212780E-04
 -4.54145886E-04  1.92185805E+00  5.56453513E-05  2.93334785E-04  7.57828565E-05
 -3.22069424E-01  4.42761366E-05 -4.40048872E-06 -6.49635424E-06  2.74252458E-02
 -3.93829758E-02  7.84574111E-06  3.41586936E-02 -2.77820196E-01 -8.22617467E-01
  2.76873166E-06  1.47436518E-01  6.56756759E-02 -1.70758281E-02  1.38849798E-01
  4.11242427E-01 -7.27661408E-02  2.13939151E-02 -3.28439809E-02 -1.70625559E-02
  1.38742408E-01  4.10922433E-01  7.27183992E-02  2.13631411E-02 -3.28184882E-02
  3.28823268E-02  6.24451445E-02 -6.24886690E-08  3.78557659E-06 -2.65728850E-01
 -5.45074585E-01 -1.41832467E-07  1.64712698E-05 -7.66159807E-01  1.90197113E+00
  2.87285823E-07  4.82159413E-05  1.76933524E+00  2.19780902E+00  4.18631068E-08
  6.46233872E-05 -1.79408294E-01 -3.57475836E-02  2.13658401E-08 -5.00258730E-06
  1.21189164E-05 -3.52643496E-08  5.30538981E-02 -2.13964442E-01 -1.27623538E+00
 -1.72183543E-06  1.36692574E-01  4.88648681E-02  5.30585158E-02 -2.13924023E-01
 -1.27634813E+00  1.18383266E-01 -6.83460243E-02  4.88903047E-02  5.30584851E-02
 -2.13924107E-01 -1.27634704E+00 -1.18381502E-01 -6.83489038E-02  4.88902577E-02
  1.06150932E-01  2.05463685E-01 -2.23747964E-08  7.73286294E-06  6.11538355E-02
 -1.64130265E+00  1.42577302E-08  3.34281111E-05  4.33374388E-01  3.89258304E+00
 -2.79581911E-08  1.10922494E-04 -1.36395185E-01  4.59200480E-01  6.94718361E-08
  2.87419557E-05  5.32402833E-01 -1.13753050E-02  3.32162352E-08 -1.41917581E-05
  7.58454864E-06 -3.84837879E-08  3.28612519E-02 -6.50971912E-01 -6.88516938E-01
 -2.42111665E-06  1.94560147E-01  1.30992613E-01  3.28591756E-02 -6.50869943E-01
 -6.88618514E-01  1.68463492E-01 -9.72835041E-02  1.31072178E-01  3.28591665E-02
 -6.50869961E-01 -6.88617906E-01 -1.68461038E-01 -9.72876689E-02  1.31072050E-01
 -1.06936796E-08 -2.19292007E-08 -1.84341627E-02  6.80736031E-06 -3.17029838E-09
  1.71707751E-07 -4.69367185E-02  1.73199771E-05 -5.78689271E-08 -3.74527366E-07
 -4.07970568E-01  1.50734671E-04  1.93397539E-08 -1.31314872E-07  1.32398808E-01
 -4.89051529E-05 -5.46897185E-08 -1.55785352E-08  1.87886241E-01 -6.93924560E-05
 -6.48007177E-05  1.59291718E-01  6.94072138E-06 -1.27712886E-04  6.80924991E-05
  4.72006521E-01  8.39642414E-05 -1.79628038E-04 -1.57270653E-02  2.89789753E-01
 -1.54261719E-01 -3.53897210E-02  2.92802517E-01  4.07443606E-01  1.57201530E-02
 -2.89661904E-01  1.54193948E-01 -3.51587917E-02 -2.93034777E-01 -4.07264141E-01
  1.06359258E-05  2.21075942E-05 -6.81089787E-06 -1.84317214E-02 -3.79641493E-06
 -1.78379266E-04 -1.73402048E-05 -4.68914962E-02  1.50040268E-06  3.30870791E-04
 -1.50652087E-04 -4.07912122E-01 -9.68199075E-06  1.52615727E-04  4.88998305E-05
  1.32368557E-01  5.45314024E-05  1.82845839E-05  6.94396337E-05  1.87945316E-01
  1.59259032E-01  6.47508135E-05 -1.81576083E-02  3.34432600E-01 -1.78148626E-01
  1.82695391E-04 -2.04351969E-01  4.70527510E-01  9.05881214E-03 -1.67141569E-01
  8.88421212E-02  2.92786814E-01  3.03026622E-01 -2.35034067E-01  9.07081676E-03
 -1.67362729E-01  8.89598866E-02 -2.92821204E-01  3.02795685E-01 -2.35345266E-01
 -1.20935729E-11 -2.51544090E-11  1.98298143E-06  4.12444832E-10  5.23462922E-12
  2.14174415E-10 -9.73363843E-05 -3.67724357E-08 -2.00473910E-11 -3.25139841E-10
  3.10799707E-04  1.31984121E-07 -2.26972071E-10 -2.30957857E-10 -9.01867278E-05
 -6.27361100E-08 -2.06626993E-11  8.44826267E-11  7.38695811E-06  1.09962178E-08
 -2.03094064E-08 -3.31141004E-05  1.02678089E-08 -1.03975634E-07  9.66253606E-08
  6.17109718E-01  7.60594086E-06  9.80756847E-08  4.45276626E-06 -1.65854903E-04
  9.43403458E-05 -3.08731417E-01 -5.34557939E-01  1.35373680E-04 -4.46286321E-06
  1.65958988E-04 -9.44365869E-05 -3.08744730E-01  5.34550175E-01 -1.35471255E-04
  3.56381362E-02  7.80126729E-02  1.60960010E-08 -2.94499914E-06  5.09915840E-02
 -7.41242484E-01  7.74358614E-08  5.18831118E-06 -3.04641387E-02  1.91307810E+00
 -7.17174712E-08  5.38763527E-05  1.18264288E+00 -1.56992589E-01  5.82917651E-08
  1.16096628E-05 -1.76682319E-01 -3.52532319E-01  3.90736093E-08 -2.12742093E-05
  2.27839286E-05 -5.47194107E-09  2.94222086E-02 -8.41072033E-01  9.51089895E-02
 -1.27102780E-06  1.00646498E-01 -5.41112002E-01  2.94265036E-02 -8.41122661E-01
  9.51448039E-02  8.72089796E-02 -5.03058940E-02 -5.41178240E-01  2.94265491E-02
 -8.41122569E-01  9.51450380E-02 -8.72075529E-02 -5.03079367E-02 -5.41178240E-01
 -3.26496512E-09 -5.92428764E-09  2.41683829E-02 -3.32115237E-06  2.23134929E-09
  2.86758876E-08 -1.07481144E-01  1.47092988E-05 -5.17971006E-08  1.57529698E-07
  1.26620053E+00 -1.73557737E-04  1.83849977E-07  1.34697411E-07 -4.61923963E-01
  6.32567791E-05 -1.62983207E-08  4.17969436E-09  5.18053392E-03 -7.28146150E-07
  2.84761247E-05 -1.63450879E-01 -1.96746959E-05  1.52808633E-04 -9.98678339E-05
 -6.47418912E-01  4.76340373E-05 -7.90302277E-05  1.14175768E-01 -8.85581611E-01
  5.78842525E-01 -4.41476980E-01 -1.18500076E-01  4.57437858E-01 -1.14156103E-01
  8.85428728E-01 -5.78742922E-01 -4.41515367E-01  1.18662044E-01 -4.57358992E-01
 -1.31436436E-07 -6.78801897E-07  3.29986026E-06  2.41625718E-02  2.28311183E-06
 -7.15927726E-06 -1.47323136E-05 -1.07432540E-01  2.81329150E-05  1.25438201E-04
  1.73339411E-04  1.26603385E+00  6.06994509E-06 -5.41614966E-05 -6.33066662E-05
 -4.61946443E-01  9.09974281E-07 -6.10842297E-06  6.84695504E-07  5.13345803E-03
 -1.63481717E-01 -2.85028120E-05  1.31901491E-01 -1.02255055E+00  6.68501202E-01
 -9.22122898E-05 -3.72975482E-01  5.28103881E-01 -6.59250689E-02  5.11014767E-01
 -3.34109759E-01 -1.18762444E-01 -5.78777722E-01 -2.63972340E-01 -6.59592508E-02
  5.11279304E-01 -3.34282910E-01  1.18644937E-01 -5.78739498E-01 -2.64108917E-01
  3.28045264E-06  7.23019110E-06 -1.39968446E-04 -1.64378590E-01  4.09763049E-06
 -3.59599196E-05 -3.90921023E-04 -4.59088722E-01 -8.50991231E-06 -1.55728531E-04
  8.94443031E-05  1.05181133E-01 -6.20938893E-05  1.17122053E-04 -4.64501685E-04
 -5.45582098E-01  4.99110085E-05 -5.21715634E-05  2.83745413E-04  3.33263636E-01
 -2.93654084E-01 -2.60941338E-04  5.20697205E-01 -8.16438872E-01  1.31229978E+00
  2.25134338E-04 -4.74990644E-01 -4.36972106E-01 -2.60001379E-01  4.07793614E-01
 -6.55263590E-01  3.15235605E-01  7.19312262E-02  2.18157179E-01 -2.60780451E-01
  4.09015120E-01 -6.57227077E-01 -3.15743209E-01  7.13781216E-02  2.18811090E-01
 -7.74133959E-09 -1.35978728E-08 -1.64392875E-01  1.39958513E-04  1.15688007E-08
 -2.98309487E-08 -4.59112075E-01  3.90865837E-04  1.65932578E-08  7.99643013E-07
  1.05259824E-01 -8.97321399E-05  3.71541376E-07 -1.31426249E-07 -5.45691553E-01
  4.64645110E-04 -1.25437367E-07  6.51564218E-08  3.33321280E-01 -2.83807186E-04
  2.61013055E-04 -2.93653495E-01 -4.49875956E-04  7.05239053E-04 -1.13383457E-03
  2.53701628E-01  4.13587572E-04  3.77413317E-04  4.51220648E-01 -7.07593971E-01
  1.13720610E+00 -2.93028234E-01  3.15434052E-01 -3.78660046E-01 -4.50770676E-01
  7.06887539E-01 -1.13607211E+00 -2.92475730E-01 -3.15565197E-01  3.78282451E-01
 -3.11784292E-02 -5.51143515E-02 -2.74203156E-08  1.04681207E-05  1.55796603E-01
  1.76497995E-01 -2.58354915E-07  1.63396682E-04  7.51385269E-02  5.26141021E-01
 -4.15126355E-07  1.09707891E-04  4.65794355E-01  2.41160783E+00  1.66848712E-07
 -1.52395336E-05  3.80469229E-01  5.07350674E-01 -2.39942774E-07  5.74262562E-05
 -1.00574616E-04  1.95988584E-07 -5.88269778E-01  7.59595572E-01 -1.44305691E+00
 -5.17505676E-06  4.16537695E-01 -2.55820662E-01 -5.88469916E-01  7.60169707E-01
 -1.44339514E+00  3.60589380E-01 -2.08108223E-01 -2.55942683E-01 -5.88469499E-01
  7.60168228E-01 -1.44339417E+00 -3.60584602E-01 -2.08117419E-01 -2.55942451E-01
  1.70949048E-08  4.76113729E-08  5.11713183E-02 -4.08103733E-05 -3.64829238E-08
 -5.58365658E-07 -1.13542344E+00  9.05527605E-04 -2.97347899E-07 -5.30769942E-07
 -7.97092475E-01  6.35531879E-04 -3.68967431E-07 -6.55536305E-07  7.26286803E-01