geo opt and freq calc of ethene                                         
Freq      RB3LYP                                                      6-311+G(d,p)        
Number of atoms                            I                6
Charge                                     I                0
Multiplicity                               I                1
Number of electrons                        I               16
Number of alpha electrons                  I                8
Number of beta electrons                   I                8
Number of basis functions                  I               68
Number of independant functions            I               68
Number of point charges in /Mol/           I                0
Number of translation vectors              I                0
Info1-9                                    I   N=           9
          15          13        1002           0           0         100
           6          18        -501
Num ILSW                                   I              100
ILSW                                       I   N=         100
           0           0           0           0           2           0
           0           0           0           0         402      200000
           0           0           0           0           0           0
           0      800000           0           0           1           0
           1           0           0           0     1000000           0
           0           0      100000           0          -1           0
           0           0           0           0           0           0
           0           0           0           1           0           0
           0           0           1      720000      810000           0
           0           0           0           0           0           0
           0           0           0           0           0           0
           0           0           0           0           0           0
           0           0           0           0           0           0
           0           0           0           0           0           0
           0           0           0           0           0           0
           0           0           0           0           0           0
           0           0           0           0
Number of contracted shells                I               28
Highest angular momentum                   I                2
Largest degree of contraction              I                6
Number of primitive shells                 I               50
Pure/Cartesian d shells                    I                0
Pure/Cartesian f shells                    I                0
Virial Ratio                               R      2.005255973770841E+00
SCF Energy                                 R     -7.861551262545911E+01
Total Energy                               R     -7.861551262545911E+01
RMS Force                                  R      4.056204284524627E-05
RMS Density                                R      1.088078459925987E-09
Atomic numbers                             I   N=           6
           6           1           6           1           1           1
Nuclear charges                            R   N=           6
  6.00000000E+00  1.00000000E+00  6.00000000E+00  1.00000000E+00  1.00000000E+00
  1.00000000E+00
Current cartesian coordinates              R   N=          18
 -1.97215226E-31  0.00000000E+00  1.25567829E+00  0.00000000E+00  1.74371984E+00
  2.33429480E+00  1.53776239E-16  0.00000000E+00 -1.25567829E+00 -2.13544091E-16
 -1.74371984E+00  2.33429480E+00 -2.13544091E-16 -1.74371984E+00 -2.33429480E+00
  2.85868666E-16  1.74371984E+00 -2.33429480E+00
Int Atom Types                             I   N=           6
           0           0           0           0           0           0
Force Field                                I                0
MM charges                                 R   N=           6
  0.00000000E+00  0.00000000E+00  0.00000000E+00  0.00000000E+00  0.00000000E+00
  0.00000000E+00
Integer atomic weights                     I   N=           6
          12           1          12           1           1           1
Real atomic weights                        R   N=           6
  1.20000000E+01  1.00782504E+00  1.20000000E+01  1.00782504E+00  1.00782504E+00
  1.00782504E+00
Atom residue info                          I   N=           6
           0           0           0           0           0           0
Atom fragment info                         I   N=           6
           0           0           0           0           0           0
Atom residue num                           I   N=           6
           0           0           0           0           0           0
Nuclear spins                              I   N=           6
           0           1           0           1           1           1
Nuclear ZEff                               R   N=           6
 -3.60000000E+00 -1.00000000E+00 -3.60000000E+00 -1.00000000E+00 -1.00000000E+00
 -1.00000000E+00
Nuclear QMom                               R   N=           6
  0.00000000E+00  0.00000000E+00  0.00000000E+00  0.00000000E+00  0.00000000E+00
  0.00000000E+00
Nuclear GFac                               R   N=           6
  0.00000000E+00  2.79284600E+00  0.00000000E+00  2.79284600E+00  2.79284600E+00
  2.79284600E+00
MicOpt                                     I   N=           6
          -1          -1          -1          -1          -1          -1
Constraint Structure                       R   N=          18
 -1.97215226E-31  0.00000000E+00  1.25567829E+00  0.00000000E+00  1.74371984E+00
  2.33429480E+00  1.53776239E-16  0.00000000E+00 -1.25567829E+00 -2.13544091E-16
 -1.74371984E+00  2.33429480E+00 -2.13544091E-16 -1.74371984E+00 -2.33429480E+00
  2.85868666E-16  1.74371984E+00 -2.33429480E+00
ONIOM Charges                              I   N=          16
           0           0           0           0           0           0
           0           0           0           0           0           0
           0           0           0           0
ONIOM Multiplicities                       I   N=          16
           1           0           0           0           0           0
           0           0           0           0           0           0
           0           0           0           0
Atom Layers                                I   N=           6
           0           0           0           0           0           0
Atom Modifiers                             I   N=           6
           0           0           0           0           0           0
Int Atom Modified Types                    I   N=           6
           0           0           0           0           0           0
Link Atoms                                 I   N=           6
           0           0           0           0           0           0
Atom Modified MM Charges                   R   N=           6
  0.00000000E+00  0.00000000E+00  0.00000000E+00  0.00000000E+00  0.00000000E+00
  0.00000000E+00
Link Distances                             R   N=          24
  0.00000000E+00  0.00000000E+00  0.00000000E+00  0.00000000E+00  0.00000000E+00
  0.00000000E+00  0.00000000E+00  0.00000000E+00  0.00000000E+00  0.00000000E+00
  0.00000000E+00  0.00000000E+00  0.00000000E+00  0.00000000E+00  0.00000000E+00
  0.00000000E+00  0.00000000E+00  0.00000000E+00  0.00000000E+00  0.00000000E+00
  0.00000000E+00  0.00000000E+00  0.00000000E+00  0.00000000E+00
MxBond                                     I                3
NBond                                      I   N=           6
           3           1           3           1           1           1
IBond                                      I   N=          18
           2           3           4           1           0           0
           1           5           6           1           0           0
           3           0           0           3           0           0
RBond                                      R   N=          18
  1.00000000E+00  1.00000000E+00  1.00000000E+00  1.00000000E+00  0.00000000E+00
  0.00000000E+00  1.00000000E+00  1.00000000E+00  1.00000000E+00  1.00000000E+00
  0.00000000E+00  0.00000000E+00  1.00000000E+00  0.00000000E+00  0.00000000E+00
  1.00000000E+00  0.00000000E+00  0.00000000E+00
Shell types                                I   N=          28
           0          -1          -1          -1          -1          -2
           0           0           0           1           0          -1
          -1          -1          -1          -2           0           0
           0           1           0           0           0           1
           0           0           0           1
Number of primitives per shell             I   N=          28
           6           3           1           1           1           1
           3           1           1           1           6           3
           1           1           1           1           3           1
           1           1           3           1           1           1
           3           1           1           1
Shell to atom map                          I   N=          28
           1           1           1           1           1           1
           2           2           2           2           3           3
           3           3           3           3           4           4
           4           4           5           5           5           5
           6           6           6           6
Primitive exponents                        R   N=          50
  4.56324000E+03  6.82024000E+02  1.54973000E+02  4.44553000E+01  1.30290000E+01
  1.82773000E+00  2.09642000E+01  4.80331000E+00  1.45933000E+00  4.83456000E-01
  1.45585000E-01  4.38000000E-02  6.26000000E-01  3.38650000E+01  5.09479000E+00
  1.15879000E+00  3.25840000E-01  1.02741000E-01  7.50000000E-01  4.56324000E+03
  6.82024000E+02  1.54973000E+02  4.44553000E+01  1.30290000E+01  1.82773000E+00
  2.09642000E+01  4.80331000E+00  1.45933000E+00  4.83456000E-01  1.45585000E-01
  4.38000000E-02  6.26000000E-01  3.38650000E+01  5.09479000E+00  1.15879000E+00
  3.25840000E-01  1.02741000E-01  7.50000000E-01  3.38650000E+01  5.09479000E+00
  1.15879000E+00  3.25840000E-01  1.02741000E-01  7.50000000E-01  3.38650000E+01
  5.09479000E+00  1.15879000E+00  3.25840000E-01  1.02741000E-01  7.50000000E-01
Contraction coefficients                   R   N=          50
  1.96665025E-03  1.52306019E-02  7.61269097E-02  2.60801033E-01  6.16462078E-01
  2.21006028E-01  1.14660081E-01  9.19999648E-01 -3.03068213E-03  1.00000000E+00
  1.00000000E+00  1.00000000E+00  1.00000000E+00  2.54938145E-02  1.90373109E-01
  8.52161486E-01  1.00000000E+00  1.00000000E+00  1.00000000E+00  1.96665025E-03
  1.52306019E-02  7.61269097E-02  2.60801033E-01  6.16462078E-01  2.21006028E-01
  1.14660081E-01  9.19999648E-01 -3.03068213E-03  1.00000000E+00  1.00000000E+00
  1.00000000E+00  1.00000000E+00  2.54938145E-02  1.90373109E-01  8.52161486E-01
  1.00000000E+00  1.00000000E+00  1.00000000E+00  2.54938145E-02  1.90373109E-01
  8.52161486E-01  1.00000000E+00  1.00000000E+00  1.00000000E+00  2.54938145E-02
  1.90373109E-01  8.52161486E-01  1.00000000E+00  1.00000000E+00  1.00000000E+00
P(S=P) Contraction coefficients            R   N=          50
  0.00000000E+00  0.00000000E+00  0.00000000E+00  0.00000000E+00  0.00000000E+00
  0.00000000E+00  4.02486927E-02  2.37593957E-01  8.15853851E-01  1.00000000E+00
  1.00000000E+00  1.00000000E+00  0.00000000E+00  0.00000000E+00  0.00000000E+00
  0.00000000E+00  0.00000000E+00  0.00000000E+00  0.00000000E+00  0.00000000E+00
  0.00000000E+00  0.00000000E+00  0.00000000E+00  0.00000000E+00  0.00000000E+00
  4.02486927E-02  2.37593957E-01  8.15853851E-01  1.00000000E+00  1.00000000E+00
  1.00000000E+00  0.00000000E+00  0.00000000E+00  0.00000000E+00  0.00000000E+00
  0.00000000E+00  0.00000000E+00  0.00000000E+00  0.00000000E+00  0.00000000E+00
  0.00000000E+00  0.00000000E+00  0.00000000E+00  0.00000000E+00  0.00000000E+00
  0.00000000E+00  0.00000000E+00  0.00000000E+00  0.00000000E+00  0.00000000E+00
Coordinates of each shell                  R   N=          84
 -1.97215226E-31  0.00000000E+00  1.25567829E+00 -1.97215226E-31  0.00000000E+00
  1.25567829E+00 -1.97215226E-31  0.00000000E+00  1.25567829E+00 -1.97215226E-31
  0.00000000E+00  1.25567829E+00 -1.97215226E-31  0.00000000E+00  1.25567829E+00
 -1.97215226E-31  0.00000000E+00  1.25567829E+00  0.00000000E+00  1.74371984E+00
  2.33429480E+00  0.00000000E+00  1.74371984E+00  2.33429480E+00  0.00000000E+00
  1.74371984E+00  2.33429480E+00  0.00000000E+00  1.74371984E+00  2.33429480E+00
  1.53776239E-16  0.00000000E+00 -1.25567829E+00  1.53776239E-16  0.00000000E+00
 -1.25567829E+00  1.53776239E-16  0.00000000E+00 -1.25567829E+00  1.53776239E-16
  0.00000000E+00 -1.25567829E+00  1.53776239E-16  0.00000000E+00 -1.25567829E+00
  1.53776239E-16  0.00000000E+00 -1.25567829E+00 -2.13544091E-16 -1.74371984E+00
  2.33429480E+00 -2.13544091E-16 -1.74371984E+00  2.33429480E+00 -2.13544091E-16
 -1.74371984E+00  2.33429480E+00 -2.13544091E-16 -1.74371984E+00  2.33429480E+00
 -2.13544091E-16 -1.74371984E+00 -2.33429480E+00 -2.13544091E-16 -1.74371984E+00
 -2.33429480E+00 -2.13544091E-16 -1.74371984E+00 -2.33429480E+00 -2.13544091E-16
 -1.74371984E+00 -2.33429480E+00  2.85868666E-16  1.74371984E+00 -2.33429480E+00
  2.85868666E-16  1.74371984E+00 -2.33429480E+00  2.85868666E-16  1.74371984E+00
 -2.33429480E+00  2.85868666E-16  1.74371984E+00 -2.33429480E+00
Alpha Orbital Energies                     R   N=          68
 -1.01745501E+01 -1.01736737E+01 -7.67344504E-01 -5.85467323E-01 -4.75448760E-01
 -4.28496392E-01 -3.61310417E-01 -2.81485887E-01 -1.08535873E-02  2.01393750E-02
  3.28446097E-02  4.32204110E-02  6.62787327E-02  8.17548143E-02  8.47035771E-02
  1.23933240E-01  1.39470272E-01  1.52431016E-01  1.64234241E-01  2.01234307E-01
  2.77011746E-01  3.22344502E-01  4.06725391E-01  4.11573093E-01  5.08796946E-01
  5.19880364E-01  5.40664891E-01  5.99996136E-01  6.07256665E-01  6.84757338E-01
  6.95444864E-01  6.95855913E-01  7.62592946E-01  8.63506971E-01  9.93756958E-01
  1.09309556E+00  1.10921899E+00  1.37204095E+00  1.42182440E+00  1.42605823E+00
  1.57260377E+00  1.59932529E+00  1.60031928E+00  1.61104259E+00  1.76433194E+00
  1.79098635E+00  1.96584365E+00  2.02508157E+00  2.10544200E+00  2.15264999E+00
  2.15730465E+00  2.22605493E+00  2.34242738E+00  2.42785274E+00  2.53274027E+00
  2.55492250E+00  2.63906423E+00  2.69364034E+00  2.71890188E+00  2.79989233E+00
  2.88261552E+00  3.13665498E+00  3.43047640E+00  3.64150545E+00  3.82491571E+00
  4.11019617E+00  2.37404562E+01  2.42752306E+01
Alpha MO coefficients                      R   N=        4624
  3.97950550E-01  3.27716529E-01  0.00000000E+00  0.00000000E+00 -4.14346933E-04
  1.29488347E-02  0.00000000E+00  0.00000000E+00  2.41731952E-03 -3.94010083E-03
  0.00000000E+00  0.00000000E+00  3.20744869E-04 -8.17458198E-04  0.00000000E+00
  0.00000000E+00 -1.16100774E-03 -2.88478270E-04  0.00000000E+00  0.00000000E+00
 -1.43742431E-03  0.00000000E+00  4.98936637E-05 -3.31235559E-03  2.32098606E-03
  0.00000000E+00  1.75932463E-03  9.48265155E-04  3.97950550E-01  3.27716529E-01
  0.00000000E+00  0.00000000E+00  4.14346933E-04  1.29488347E-02  0.00000000E+00
  0.00000000E+00 -2.41731952E-03 -3.94010083E-03  0.00000000E+00  0.00000000E+00
 -3.20744869E-04 -8.17458198E-04  0.00000000E+00  0.00000000E+00  1.16100774E-03
 -2.88478270E-04  0.00000000E+00  0.00000000E+00 -1.43742431E-03  0.00000000E+00
  4.98936637E-05 -3.31235559E-03  2.32098606E-03  0.00000000E+00 -1.75932463E-03
  9.48265155E-04  4.98936637E-05 -3.31235559E-03  2.32098606E-03  0.00000000E+00
 -1.75932463E-03 -9.48265155E-04  4.98936637E-05 -3.31235559E-03  2.32098606E-03
  0.00000000E+00  1.75932463E-03 -9.48265155E-04  3.98103954E-01  3.27310997E-01
  0.00000000E+00  0.00000000E+00  9.96307317E-04  1.46002369E-02  0.00000000E+00
  0.00000000E+00 -5.52220977E-03 -4.41333300E-03  0.00000000E+00  0.00000000E+00
  1.61563081E-03  4.88536046E-03  0.00000000E+00  0.00000000E+00 -1.75620119E-03
  3.41396665E-03  0.00000000E+00  0.00000000E+00 -7.57712047E-04  0.00000000E+00
  3.47976400E-04 -1.66613172E-03  1.12452382E-03  0.00000000E+00  9.31374300E-04
  3.91664758E-04 -3.98103954E-01 -3.27310997E-01  0.00000000E+00  0.00000000E+00
  9.96307317E-04 -1.46002369E-02  0.00000000E+00  0.00000000E+00 -5.52220977E-03
  4.41333300E-03  0.00000000E+00  0.00000000E+00  1.61563081E-03 -4.88536046E-03
  0.00000000E+00  0.00000000E+00 -1.75620119E-03 -3.41396665E-03  0.00000000E+00
  0.00000000E+00  7.57712047E-04  0.00000000E+00  3.47976400E-04 -1.66613172E-03
  1.12452382E-03  0.00000000E+00 -9.31374300E-04  3.91664758E-04 -3.47976400E-04
  1.66613172E-03 -1.12452382E-03  0.00000000E+00  9.31374300E-04  3.91664758E-04
 -3.47976400E-04  1.66613172E-03 -1.12452382E-03  0.00000000E+00 -9.31374300E-04
  3.91664758E-04 -8.84483313E-02 -1.36594636E-01  0.00000000E+00  0.00000000E+00
 -5.21537492E-02  3.55983036E-01  0.00000000E+00  0.00000000E+00 -6.93351939E-02
  1.81300918E-01  0.00000000E+00  0.00000000E+00 -1.63962535E-02  3.33350301E-03
  0.00000000E+00  0.00000000E+00  6.93540336E-03  1.43612687E-02  0.00000000E+00
  0.00000000E+00 -4.34631186E-03  0.00000000E+00  5.22630500E-02  6.08900130E-02
 -1.29277869E-03  0.00000000E+00 -8.26933133E-03 -7.79199307E-03 -8.84483313E-02
 -1.36594636E-01  0.00000000E+00  0.00000000E+00  5.21537492E-02  3.55983036E-01
  0.00000000E+00  0.00000000E+00  6.93351939E-02  1.81300918E-01  0.00000000E+00
  0.00000000E+00  1.63962535E-02  3.33350301E-03  0.00000000E+00  0.00000000E+00
 -6.93540336E-03  1.43612687E-02  0.00000000E+00  0.00000000E+00 -4.34631186E-03
  0.00000000E+00  5.22630500E-02  6.08900130E-02 -1.29277869E-03  0.00000000E+00
  8.26933133E-03 -7.79199307E-03  5.22630500E-02  6.08900130E-02 -1.29277869E-03
  0.00000000E+00  8.26933133E-03  7.79199307E-03  5.22630500E-02  6.08900130E-02
 -1.29277869E-03  0.00000000E+00 -8.26933133E-03  7.79199307E-03 -6.81272143E-02
 -1.06669803E-01  0.00000000E+00  0.00000000E+00  7.68109586E-02  2.86072632E-01
  0.00000000E+00  0.00000000E+00  1.07223547E-01  2.08798438E-01  0.00000000E+00
  0.00000000E+00  5.23782626E-02 -2.66315758E-02  0.00000000E+00  0.00000000E+00
  1.22493327E-02 -4.30046292E-03  0.00000000E+00  0.00000000E+00 -9.84577069E-03
  0.00000000E+00  9.12907753E-02  1.14452551E-01  1.67574396E-02  0.00000000E+00
 -1.36289612E-02 -4.00517494E-03  6.81272143E-02  1.06669803E-01  0.00000000E+00
  0.00000000E+00  7.68109586E-02 -2.86072632E-01  0.00000000E+00  0.00000000E+00
  1.07223547E-01 -2.08798438E-01  0.00000000E+00  0.00000000E+00  5.23782626E-02
  2.66315758E-02  0.00000000E+00  0.00000000E+00  1.22493327E-02  4.30046292E-03
  0.00000000E+00  0.00000000E+00  9.84577069E-03  0.00000000E+00  9.12907753E-02
  1.14452551E-01  1.67574396E-02  0.00000000E+00  1.36289612E-02 -4.00517494E-03
 -9.12907753E-02 -1.14452551E-01 -1.67574396E-02  0.00000000E+00 -1.36289612E-02
 -4.00517494E-03 -9.12907753E-02 -1.14452551E-01 -1.67574396E-02  0.00000000E+00
  1.36289612E-02 -4.00517494E-03  0.00000000E+00  0.00000000E+00  0.00000000E+00
  1.53431031E-01  0.00000000E+00  0.00000000E+00  0.00000000E+00  2.09823791E-01
  0.00000000E+00  0.00000000E+00  0.00000000E+00  1.19324669E-01  0.00000000E+00
  0.00000000E+00  0.00000000E+00  7.31153379E-03  0.00000000E+00  0.00000000E+00
  0.00000000E+00 -3.38892785E-03  0.00000000E+00  0.00000000E+00  9.74476473E-02
  1.33445576E-01  3.32685138E-02  0.00000000E+00 -8.67386197E-03 -1.09044717E-02
  0.00000000E+00  0.00000000E+00  0.00000000E+00  1.53431031E-01  0.00000000E+00
  0.00000000E+00  0.00000000E+00  2.09823791E-01  0.00000000E+00  0.00000000E+00
  0.00000000E+00  1.19324669E-01  0.00000000E+00  0.00000000E+00  0.00000000E+00
  7.31153379E-03  0.00000000E+00  0.00000000E+00  0.00000000E+00  3.38892785E-03
  0.00000000E+00  0.00000000E+00 -9.74476473E-02 -1.33445576E-01 -3.32685138E-02
  0.00000000E+00 -8.67386197E-03  1.09044717E-02 -9.74476473E-02 -1.33445576E-01
 -3.32685138E-02  0.00000000E+00 -8.67386197E-03 -1.09044717E-02  9.74476473E-02
  1.33445576E-01  3.32685138E-02  0.00000000E+00 -8.67386197E-03  1.09044717E-02
  6.73004713E-03  1.07130538E-02  0.00000000E+00  0.00000000E+00  1.96702164E-01
 -3.21586044E-02  0.00000000E+00  0.00000000E+00  2.64432660E-01  2.22974696E-02
  0.00000000E+00  0.00000000E+00  1.45863172E-01  6.80774155E-03  0.00000000E+00
  0.00000000E+00  5.22500376E-03 -1.57733565E-02  0.00000000E+00  0.00000000E+00
 -9.37861835E-03  0.00000000E+00  7.81633977E-02  1.10527281E-01  4.29849244E-02
  0.00000000E+00 -1.18799242E-02  4.65504897E-03  6.73004713E-03  1.07130538E-02
  0.00000000E+00  0.00000000E+00 -1.96702164E-01 -3.21586044E-02  0.00000000E+00
  0.00000000E+00 -2.64432660E-01  2.22974696E-02  0.00000000E+00  0.00000000E+00
 -1.45863172E-01  6.80774155E-03  0.00000000E+00  0.00000000E+00 -5.22500376E-03
 -1.57733565E-02  0.00000000E+00  0.00000000E+00 -9.37861835E-03  0.00000000E+00
  7.81633977E-02  1.10527281E-01  4.29849244E-02  0.00000000E+00  1.18799242E-02
  4.65504897E-03  7.81633977E-02  1.10527281E-01  4.29849244E-02  0.00000000E+00
  1.18799242E-02 -4.65504897E-03  7.81633977E-02  1.10527281E-01  4.29849244E-02
  0.00000000E+00 -1.18799242E-02 -4.65504897E-03  0.00000000E+00  0.00000000E+00
  0.00000000E+00  1.42641141E-01  0.00000000E+00  0.00000000E+00  0.00000000E+00
  1.97233310E-01  0.00000000E+00  0.00000000E+00  0.00000000E+00  1.41314716E-01
  0.00000000E+00  0.00000000E+00  0.00000000E+00  1.88870208E-02  0.00000000E+00
  0.00000000E+00  0.00000000E+00  3.52263381E-02  0.00000000E+00  0.00000000E+00
  1.18512377E-01  1.76648770E-01  9.39384218E-02  0.00000000E+00 -4.15776629E-03
 -8.14529046E-03  0.00000000E+00  0.00000000E+00  0.00000000E+00 -1.42641141E-01
  0.00000000E+00  0.00000000E+00  0.00000000E+00 -1.97233310E-01  0.00000000E+00
  0.00000000E+00  0.00000000E+00 -1.41314716E-01  0.00000000E+00  0.00000000E+00
  0.00000000E+00 -1.88870208E-02  0.00000000E+00  0.00000000E+00  0.00000000E+00
  3.52263381E-02  0.00000000E+00  0.00000000E+00 -1.18512377E-01 -1.76648770E-01
 -9.39384218E-02  0.00000000E+00 -4.15776629E-03  8.14529046E-03  1.18512377E-01
  1.76648770E-01  9.39384218E-02  0.00000000E+00  4.15776629E-03  8.14529046E-03
 -1.18512377E-01 -1.76648770E-01 -9.39384218E-02  0.00000000E+00  4.15776629E-03
 -8.14529046E-03  0.00000000E+00  0.00000000E+00  1.82839844E-01  0.00000000E+00
  0.00000000E+00  0.00000000E+00  2.78271498E-01  0.00000000E+00  0.00000000E+00
  0.00000000E+00  2.41210793E-01  0.00000000E+00  0.00000000E+00  0.00000000E+00
  3.25553939E-02  0.00000000E+00  0.00000000E+00  0.00000000E+00 -2.20250964E-02
  0.00000000E+00  0.00000000E+00  0.00000000E+00  0.00000000E+00  0.00000000E+00
  0.00000000E+00  1.51552637E-02  0.00000000E+00  0.00000000E+00  0.00000000E+00
  0.00000000E+00  1.82839844E-01  0.00000000E+00  0.00000000E+00  0.00000000E+00
  2.78271498E-01  0.00000000E+00  0.00000000E+00  0.00000000E+00  2.41210793E-01
  0.00000000E+00  0.00000000E+00  0.00000000E+00  3.25553939E-02  0.00000000E+00
  0.00000000E+00  0.00000000E+00  2.20250964E-02  0.00000000E+00  0.00000000E+00
  0.00000000E+00  0.00000000E+00  0.00000000E+00  0.00000000E+00  1.51552637E-02
  0.00000000E+00  0.00000000E+00  0.00000000E+00  0.00000000E+00  0.00000000E+00
  1.51552637E-02  0.00000000E+00  0.00000000E+00  0.00000000E+00  0.00000000E+00
  0.00000000E+00  1.51552637E-02  0.00000000E+00  0.00000000E+00  0.00000000E+00
  0.00000000E+00  1.73258997E-01  0.00000000E+00  0.00000000E+00  0.00000000E+00
  2.57536861E-01  0.00000000E+00  0.00000000E+00  0.00000000E+00  4.69236458E-01
  0.00000000E+00  0.00000000E+00  0.00000000E+00  6.53369246E-01  0.00000000E+00
  0.00000000E+00  0.00000000E+00  2.94955628E-02  0.00000000E+00  0.00000000E+00
  0.00000000E+00  0.00000000E+00  0.00000000E+00  0.00000000E+00  2.30145941E-02
  0.00000000E+00  0.00000000E+00  0.00000000E+00  0.00000000E+00 -1.73258997E-01
  0.00000000E+00  0.00000000E+00  0.00000000E+00 -2.57536861E-01  0.00000000E+00
  0.00000000E+00  0.00000000E+00 -4.69236458E-01  0.00000000E+00  0.00000000E+00
  0.00000000E+00 -6.53369246E-01  0.00000000E+00  0.00000000E+00  0.00000000E+00
  2.94955628E-02  0.00000000E+00  0.00000000E+00  0.00000000E+00  0.00000000E+00
  0.00000000E+00  0.00000000E+00  2.30145941E-02  0.00000000E+00  0.00000000E+00
  0.00000000E+00  0.00000000E+00  0.00000000E+00 -2.30145941E-02  0.00000000E+00
  0.00000000E+00  0.00000000E+00  0.00000000E+00  0.00000000E+00 -2.30145941E-02
  0.00000000E+00  0.00000000E+00  2.41401230E-02  3.91488445E-02  0.00000000E+00
  0.00000000E+00 -4.98688815E-02 -1.08364892E-01  0.00000000E+00  0.00000000E+00
 -8.04807197E-02 -4.72465718E-01  0.00000000E+00  0.00000000E+00 -1.56225501E-01
  1.03734703E+00  0.00000000E+00  0.00000000E+00  4.31599677E-01 -4.64906392E-03
  0.00000000E+00  0.00000000E+00  1.24998254E-02  0.00000000E+00 -1.64485108E-02
  6.78806099E-02 -1.96483264E-01  0.00000000E+00  5.76610336E-03  9.41905689E-04
  2.41401230E-02  3.91488445E-02  0.00000000E+00  0.00000000E+00  4.98688815E-02
 -1.08364892E-01  0.00000000E+00  0.00000000E+00  8.04807197E-02 -4.72465718E-01
  0.00000000E+00  0.00000000E+00  1.56225501E-01  1.03734703E+00  0.00000000E+00
  0.00000000E+00 -4.31599677E-01 -4.64906392E-03  0.00000000E+00  0.00000000E+00
  1.24998254E-02  0.00000000E+00 -1.64485108E-02  6.78806099E-02 -1.96483264E-01
  0.00000000E+00 -5.76610336E-03  9.41905689E-04 -1.64485108E-02  6.78806099E-02
 -1.96483264E-01  0.00000000E+00 -5.76610336E-03 -9.41905689E-04 -1.64485108E-02
  6.78806099E-02 -1.96483264E-01  0.00000000E+00  5.76610336E-03 -9.41905689E-04
 -2.70163478E-02 -4.42382956E-02  0.00000000E+00  0.00000000E+00  2.26905413E-02
  1.37351253E-01  0.00000000E+00  0.00000000E+00  3.57663337E-02  2.83278666E-01
  0.00000000E+00  0.00000000E+00  1.11011074E-01  8.21138800E+00  0.00000000E+00
  0.00000000E+00 -2.92793827E+00 -1.05768280E-02  0.00000000E+00  0.00000000E+00
 -5.37282430E-03  0.00000000E+00  5.63905766E-03 -4.20653398E-02  1.62989451E-02
  0.00000000E+00 -4.33715675E-03 -1.03808475E-02  2.70163478E-02  4.42382956E-02
  0.00000000E+00  0.00000000E+00  2.26905413E-02 -1.37351253E-01  0.00000000E+00
  0.00000000E+00  3.57663337E-02 -2.83278666E-01  0.00000000E+00  0.00000000E+00
  1.11011074E-01 -8.21138800E+00  0.00000000E+00  0.00000000E+00 -2.92793827E+00
  1.05768280E-02  0.00000000E+00  0.00000000E+00  5.37282430E-03  0.00000000E+00
  5.63905766E-03 -4.20653398E-02  1.62989451E-02  0.00000000E+00  4.33715675E-03
 -1.03808475E-02 -5.63905766E-03  4.20653398E-02 -1.62989451E-02  0.00000000E+00
 -4.33715675E-03 -1.03808475E-02 -5.63905766E-03  4.20653398E-02 -1.62989451E-02
  0.00000000E+00  4.33715675E-03 -1.03808475E-02  0.00000000E+00  0.00000000E+00
  0.00000000E+00 -7.92131873E-02  0.00000000E+00  0.00000000E+00  0.00000000E+00
 -1.21501402E-01  0.00000000E+00  0.00000000E+00  0.00000000E+00 -2.46065014E-01
  0.00000000E+00  0.00000000E+00  0.00000000E+00  6.74211301E-01  0.00000000E+00
  0.00000000E+00  0.00000000E+00  4.46450167E-03  0.00000000E+00  0.00000000E+00
 -6.89570710E-03  8.29111051E-02 -1.22171039E-01  0.00000000E+00  8.52596397E-03
  4.43444980E-03  0.00000000E+00  0.00000000E+00  0.00000000E+00 -7.92131873E-02
  0.00000000E+00  0.00000000E+00  0.00000000E+00 -1.21501402E-01  0.00000000E+00
  0.00000000E+00  0.00000000E+00 -2.46065014E-01  0.00000000E+00  0.00000000E+00
  0.00000000E+00  6.74211301E-01  0.00000000E+00  0.00000000E+00  0.00000000E+00
 -4.46450167E-03  0.00000000E+00  0.00000000E+00  6.89570710E-03 -8.29111051E-02
  1.22171039E-01  0.00000000E+00  8.52596397E-03 -4.43444980E-03  6.89570710E-03
 -8.29111051E-02  1.22171039E-01  0.00000000E+00  8.52596397E-03  4.43444980E-03
 -6.89570710E-03  8.29111051E-02 -1.22171039E-01  0.00000000E+00  8.52596397E-03
 -4.43444980E-03  0.00000000E+00  0.00000000E+00 -7.73060682E-02  0.00000000E+00
  0.00000000E+00  0.00000000E+00 -8.62593073E-02  0.00000000E+00  0.00000000E+00
  0.00000000E+00 -2.66450838E-01  0.00000000E+00  0.00000000E+00  0.00000000E+00
  6.34534146E-01  0.00000000E+00  0.00000000E+00  0.00000000E+00  1.33577347E-02
  0.00000000E+00  0.00000000E+00  0.00000000E+00  0.00000000E+00  0.00000000E+00
  0.00000000E+00  3.54330373E-03  0.00000000E+00  0.00000000E+00  0.00000000E+00
  0.00000000E+00 -7.73060682E-02  0.00000000E+00  0.00000000E+00  0.00000000E+00
 -8.62593073E-02  0.00000000E+00  0.00000000E+00  0.00000000E+00 -2.66450838E-01
  0.00000000E+00  0.00000000E+00  0.00000000E+00  6.34534146E-01  0.00000000E+00
  0.00000000E+00  0.00000000E+00 -1.33577347E-02  0.00000000E+00  0.00000000E+00
  0.00000000E+00  0.00000000E+00  0.00000000E+00  0.00000000E+00  3.54330373E-03
  0.00000000E+00  0.00000000E+00  0.00000000E+00  0.00000000E+00  0.00000000E+00
  3.54330373E-03  0.00000000E+00  0.00000000E+00  0.00000000E+00  0.00000000E+00
  0.00000000E+00  3.54330373E-03  0.00000000E+00  0.00000000E+00  0.00000000E+00
  0.00000000E+00  0.00000000E+00 -5.56272001E-02  0.00000000E+00  0.00000000E+00
  0.00000000E+00 -1.13710515E-01  0.00000000E+00  0.00000000E+00  0.00000000E+00
 -1.38506782E-02  0.00000000E+00  0.00000000E+00  0.00000000E+00  2.84842188E+00
  0.00000000E+00  0.00000000E+00  0.00000000E+00 -1.45352114E-02  0.00000000E+00
  0.00000000E+00 -2.15006023E-02  4.15787841E-02 -5.79946758E-01  0.00000000E+00
  3.96012453E-03  7.64901518E-03  0.00000000E+00  0.00000000E+00  0.00000000E+00
  5.56272001E-02  0.00000000E+00  0.00000000E+00  0.00000000E+00  1.13710515E-01
  0.00000000E+00  0.00000000E+00  0.00000000E+00  1.38506782E-02  0.00000000E+00
  0.00000000E+00  0.00000000E+00 -2.84842188E+00  0.00000000E+00  0.00000000E+00
  0.00000000E+00 -1.45352114E-02  0.00000000E+00  0.00000000E+00  2.15006023E-02