freq calc of water                                                      
Freq      RB3LYP                                                      6-311+G(d,p)        
Number of atoms                            I                3
Charge                                     I                0
Multiplicity                               I                1
Number of electrons                        I               10
Number of alpha electrons                  I                5
Number of beta electrons                   I                5
Number of basis functions                  I               34
Number of independant functions            I               34
Number of point charges in /Mol/           I                0
Number of translation vectors              I                0
Info1-9                                    I   N=           9
          13          10        1002           0           0         100
           6          18        -501
Num ILSW                                   I              100
ILSW                                       I   N=         100
           0           0           0           0           2           0
           0           0           0           0         402      200000
           0           0           0           0           0           0
           0      800000           0           0           1           0
           1           0           0           0     1000000           0
           0           0      100000           0          -1           0
           0           0           0           0           0           0
           0           0           0           1           0           0
           0           0           1      720000      810000           0
           0           0           0           0           0           0
           0           0           0           0           0           0
           0           0           0           0           0           0
           0           0           0           0           0           0
           0           0           0           0           0           0
           0           0           0           0           0           0
           0           0           0           0           0           0
           0           0           0           0
Number of contracted shells                I               14
Highest angular momentum                   I                2
Largest degree of contraction              I                6
Number of primitive shells                 I               25
Pure/Cartesian d shells                    I                0
Pure/Cartesian f shells                    I                0
Virial Ratio                               R      2.003021215121664E+00
SCF Energy                                 R     -7.645846271500822E+01
Total Energy                               R     -7.645846271500822E+01
RMS Force                                  R      5.011341805124495E-05
RMS Density                                R      1.383637772584932E-09
Atomic numbers                             I   N=           3
           1           8           1
Nuclear charges                            R   N=           3
  1.00000000E+00  8.00000000E+00  1.00000000E+00
Current cartesian coordinates              R   N=           9
  0.00000000E+00  1.44258351E+00 -8.84959922E-01  3.69778549E-32 -2.77555756E-17
  2.21239981E-01 -1.76665528E-16 -1.44258351E+00 -8.84959922E-01
Int Atom Types                             I   N=           3
           0           0           0
Force Field                                I                0
MM charges                                 R   N=           3
  0.00000000E+00  0.00000000E+00  0.00000000E+00
Integer atomic weights                     I   N=           3
           1          16           1
Real atomic weights                        R   N=           3
  1.00782504E+00  1.59949146E+01  1.00782504E+00
Atom residue info                          I   N=           3
           0           0           0
Atom fragment info                         I   N=           3
           0           0           0
Atom residue num                           I   N=           3
           0           0           0
Nuclear spins                              I   N=           3
           1           0           1
Nuclear ZEff                               R   N=           3
 -1.00000000E+00 -5.60000000E+00 -1.00000000E+00
Nuclear QMom                               R   N=           3
  0.00000000E+00  0.00000000E+00  0.00000000E+00
Nuclear GFac                               R   N=           3
  2.79284600E+00  0.00000000E+00  2.79284600E+00
MicOpt                                     I   N=           3
          -1          -1          -1
Constraint Structure                       R   N=           9
  0.00000000E+00  1.44258351E+00 -8.84959922E-01  3.69778549E-32 -2.77555756E-17
  2.21239981E-01 -1.76665528E-16 -1.44258351E+00 -8.84959922E-01
ONIOM Charges                              I   N=          16
           0           0           0           0           0           0
           0           0           0           0           0           0
           0           0           0           0
ONIOM Multiplicities                       I   N=          16
           1           0           0           0           0           0
           0           0           0           0           0           0
           0           0           0           0
Atom Layers                                I   N=           3
           0           0           0
Atom Modifiers                             I   N=           3
           0           0           0
Int Atom Modified Types                    I   N=           3
           0           0           0
Link Atoms                                 I   N=           3
           0           0           0
Atom Modified MM Charges                   R   N=           3
  0.00000000E+00  0.00000000E+00  0.00000000E+00
Link Distances                             R   N=          12
  0.00000000E+00  0.00000000E+00  0.00000000E+00  0.00000000E+00  0.00000000E+00
  0.00000000E+00  0.00000000E+00  0.00000000E+00  0.00000000E+00  0.00000000E+00
  0.00000000E+00  0.00000000E+00
MxBond                                     I                2
NBond                                      I   N=           3
           1           2           1
IBond                                      I   N=           6
           2           0           1           3           2           0
RBond                                      R   N=           6
  1.00000000E+00  0.00000000E+00  1.00000000E+00  1.00000000E+00  1.00000000E+00
  0.00000000E+00
Shell types                                I   N=          14
           0           0           0           1           0          -1
          -1          -1          -1          -2           0           0
           0           1
Number of primitives per shell             I   N=          14
           3           1           1           1           6           3
           1           1           1           1           3           1
           1           1
Shell to atom map                          I   N=          14
           1           1           1           1           2           2
           2           2           2           2           3           3
           3           3
Primitive exponents                        R   N=          25
  3.38650000E+01  5.09479000E+00  1.15879000E+00  3.25840000E-01  1.02741000E-01
  7.50000000E-01  8.58850000E+03  1.29723000E+03  2.99296000E+02  8.73771000E+01
  2.56789000E+01  3.74004000E+00  4.21175000E+01  9.62837000E+00  2.85332000E+00
  9.05661000E-01  2.55611000E-01  8.45000000E-02  1.29200000E+00  3.38650000E+01
  5.09479000E+00  1.15879000E+00  3.25840000E-01  1.02741000E-01  7.50000000E-01
Contraction coefficients                   R   N=          25
  2.54938145E-02  1.90373109E-01  8.52161486E-01  1.00000000E+00  1.00000000E+00
  1.00000000E+00  1.89515008E-03  1.43859006E-02  7.07320031E-02  2.40001011E-01
  5.94797026E-01  2.80802012E-01  1.13889012E-01  9.20811101E-01 -3.27447036E-03
  1.00000000E+00  1.00000000E+00  1.00000000E+00  1.00000000E+00  2.54938145E-02
  1.90373109E-01  8.52161486E-01  1.00000000E+00  1.00000000E+00  1.00000000E+00
P(S=P) Contraction coefficients            R   N=          25
  0.00000000E+00  0.00000000E+00  0.00000000E+00  0.00000000E+00  0.00000000E+00
  0.00000000E+00  0.00000000E+00  0.00000000E+00  0.00000000E+00  0.00000000E+00
  0.00000000E+00  0.00000000E+00  3.65113974E-02  2.37152983E-01  8.19701941E-01
  1.00000000E+00  1.00000000E+00  1.00000000E+00  0.00000000E+00  0.00000000E+00
  0.00000000E+00  0.00000000E+00  0.00000000E+00  0.00000000E+00  0.00000000E+00
Coordinates of each shell                  R   N=          42
  0.00000000E+00  1.44258351E+00 -8.84959922E-01  0.00000000E+00  1.44258351E+00
 -8.84959922E-01  0.00000000E+00  1.44258351E+00 -8.84959922E-01  0.00000000E+00
  1.44258351E+00 -8.84959922E-01  3.69778549E-32 -2.77555756E-17  2.21239981E-01
  3.69778549E-32 -2.77555756E-17  2.21239981E-01  3.69778549E-32 -2.77555756E-17
  2.21239981E-01  3.69778549E-32 -2.77555756E-17  2.21239981E-01  3.69778549E-32
 -2.77555756E-17  2.21239981E-01  3.69778549E-32 -2.77555756E-17  2.21239981E-01
 -1.76665528E-16 -1.44258351E+00 -8.84959922E-01 -1.76665528E-16 -1.44258351E+00
 -8.84959922E-01 -1.76665528E-16 -1.44258351E+00 -8.84959922E-01 -1.76665528E-16
 -1.44258351E+00 -8.84959922E-01
Alpha Orbital Energies                     R   N=          34
 -1.91332160E+01 -1.02331587E+00 -5.43254518E-01 -3.96870988E-01 -3.23008533E-01
  1.91057276E-02  9.53123217E-02  1.51255050E-01  1.52003097E-01  1.76365122E-01
  2.04780391E-01  4.73258473E-01  4.88186985E-01  9.38449441E-01  9.49178953E-01
  9.92914304E-01  1.20684978E+00  1.25032751E+00  1.30878029E+00  1.45942408E+00
  1.65838665E+00  1.95546642E+00  2.07983938E+00  2.34997901E+00  2.53853289E+00
  3.08731439E+00  3.13602123E+00  3.30295856E+00  3.66409254E+00  3.85522009E+00
  4.92139145E+00  5.29616883E+00  5.60307102E+00  4.98348345E+01
Alpha MO coefficients                      R   N=        1156
 -1.54716544E-04 -1.75062467E-04 -1.56284979E-03  0.00000000E+00  8.21907272E-04
 -6.41541466E-04  5.51323739E-01  4.69814302E-01  0.00000000E+00  0.00000000E+00
 -1.30785964E-03  1.27082063E-02  0.00000000E+00  0.00000000E+00 -3.56810241E-04
 -4.57762469E-03  0.00000000E+00  0.00000000E+00 -2.79933586E-04  4.24378556E-03
  0.00000000E+00  0.00000000E+00 -6.59425392E-04  3.58319230E-05  0.00000000E+00
  0.00000000E+00 -3.77441052E-04  0.00000000E+00 -1.54716544E-04 -1.75062467E-04
 -1.56284979E-03  0.00000000E+00 -8.21907272E-04 -6.41541466E-04  9.94478479E-02
  8.17875855E-02  4.67559837E-03  0.00000000E+00 -2.30663955E-02  1.28345028E-02
 -1.16281778E-01 -1.86141296E-01  0.00000000E+00  0.00000000E+00 -5.40172836E-02
  5.42368737E-01  0.00000000E+00  0.00000000E+00 -8.24288749E-02  3.55138525E-01
  0.00000000E+00  0.00000000E+00 -2.87099740E-02 -2.86210053E-03  0.00000000E+00
  0.00000000E+00  2.39693775E-04  3.67108340E-03  0.00000000E+00  0.00000000E+00
 -8.93607049E-03  0.00000000E+00  9.94478479E-02  8.17875855E-02  4.67559837E-03
  0.00000000E+00  2.30663955E-02  1.28345028E-02  1.54059041E-01  2.05313161E-01
  5.32157358E-02  0.00000000E+00 -1.44675765E-02  2.32574315E-02  0.00000000E+00
  0.00000000E+00  0.00000000E+00  2.42114660E-01  0.00000000E+00  0.00000000E+00
  0.00000000E+00  3.47091205E-01  0.00000000E+00  0.00000000E+00  0.00000000E+00
  2.02650869E-01  0.00000000E+00  0.00000000E+00  0.00000000E+00  1.81982284E-02
  0.00000000E+00  0.00000000E+00  0.00000000E+00 -2.44098193E-02  0.00000000E+00
  0.00000000E+00 -1.54059041E-01 -2.05313161E-01 -5.32157358E-02  0.00000000E+00
 -1.44675765E-02 -2.32574315E-02 -8.79849480E-02 -1.42585936E-01 -3.59034139E-02
  0.00000000E+00  2.77957601E-02  1.43941614E-02 -4.39937129E-02 -7.18054540E-02
  0.00000000E+00  0.00000000E+00  2.61784041E-01  2.18504046E-01  0.00000000E+00
  0.00000000E+00  3.72247526E-01  3.22445597E-01  0.00000000E+00  0.00000000E+00
  2.83927500E-01  3.94769184E-02  0.00000000E+00  0.00000000E+00  7.69437799E-02
 -1.64309246E-02  0.00000000E+00  0.00000000E+00  1.70525387E-03  0.00000000E+00
 -8.79849480E-02 -1.42585936E-01 -3.59034139E-02  0.00000000E+00 -2.77957601E-02
  1.43941614E-02  0.00000000E+00  0.00000000E+00  0.00000000E+00  3.43766903E-02
  0.00000000E+00  0.00000000E+00  0.00000000E+00  0.00000000E+00  2.98480373E-01
  0.00000000E+00  0.00000000E+00  0.00000000E+00  4.32762537E-01  0.00000000E+00
  0.00000000E+00  0.00000000E+00  3.94915223E-01  0.00000000E+00  0.00000000E+00
  0.00000000E+00  1.15711857E-01  0.00000000E+00  0.00000000E+00  0.00000000E+00
 -1.68927622E-02  0.00000000E+00  0.00000000E+00  0.00000000E+00  0.00000000E+00
  0.00000000E+00  0.00000000E+00  3.43766903E-02  0.00000000E+00  0.00000000E+00
  5.06683741E-02  2.30586969E-02  1.08827946E+00  0.00000000E+00  2.07568555E-02
 -6.09676695E-03  4.15548520E-02  6.70690705E-02  0.00000000E+00  0.00000000E+00
  1.03632198E-01 -1.84643083E-01  0.00000000E+00  0.00000000E+00  1.54636153E-01
 -7.42462990E-01  0.00000000E+00  0.00000000E+00  2.15185129E-01 -5.91565418E-01
  0.00000000E+00  0.00000000E+00  2.06578711E-01 -5.93621192E-03  0.00000000E+00
  0.00000000E+00 -2.06357018E-03  0.00000000E+00  5.06683741E-02  2.30586969E-02
  1.08827946E+00  0.00000000E+00 -2.07568555E-02 -6.09676695E-03  4.61238275E-02
  3.82549598E-02  1.60292430E+00  0.00000000E+00  1.68893868E-02 -1.95714119E-02
  0.00000000E+00  0.00000000E+00  0.00000000E+00 -1.67686598E-01  0.00000000E+00
  0.00000000E+00  0.00000000E+00 -2.08054834E-01  0.00000000E+00  0.00000000E+00
  0.00000000E+00 -4.99566632E-01  0.00000000E+00  0.00000000E+00  0.00000000E+00
 -2.27091603E-01  0.00000000E+00  0.00000000E+00  0.00000000E+00 -1.41259251E-03
  0.00000000E+00  0.00000000E+00 -4.61238275E-02 -3.82549598E-02 -1.60292430E+00
  0.00000000E+00  1.68893868E-02  1.95714119E-02  0.00000000E+00  0.00000000E+00
  0.00000000E+00  1.32952726E-02  0.00000000E+00  0.00000000E+00  0.00000000E+00
  0.00000000E+00 -1.39983738E-01  0.00000000E+00  0.00000000E+00  0.00000000E+00
 -1.47913604E-01  0.00000000E+00  0.00000000E+00  0.00000000E+00 -5.19600082E-01
  0.00000000E+00  0.00000000E+00  0.00000000E+00  1.23935360E+00  0.00000000E+00
  0.00000000E+00  0.00000000E+00  7.76191356E-03  0.00000000E+00  0.00000000E+00
  0.00000000E+00  0.00000000E+00  0.00000000E+00  0.00000000E+00  1.32952726E-02
  0.00000000E+00  0.00000000E+00  2.29087302E-02 -5.39855571E-02  1.25389926E+00
  0.00000000E+00  1.83244939E-02  1.04128594E-02  1.88413353E-02  3.08387771E-02
  0.00000000E+00  0.00000000E+00 -1.06621597E-01 -1.00398880E-01  0.00000000E+00
  0.00000000E+00 -1.08028089E-01 -1.89083702E-01  0.00000000E+00  0.00000000E+00
 -4.80489014E-01 -1.65720554E+00  0.00000000E+00  0.00000000E+00  1.86775628E+00
  8.15300906E-03  0.00000000E+00  0.00000000E+00 -7.86550440E-03  0.00000000E+00
  2.29087302E-02 -5.39855571E-02  1.25389926E+00  0.00000000E+00 -1.83244939E-02
  1.04128594E-02 -7.13329750E-02 -3.32748900E-02 -2.74565197E+00  0.00000000E+00
  4.94251645E-05  2.97423707E-02  0.00000000E+00  0.00000000E+00  0.00000000E+00
  6.76783773E-03  0.00000000E+00  0.00000000E+00  0.00000000E+00  2.80771654E-02
  0.00000000E+00  0.00000000E+00  0.00000000E+00 -1.35855611E-01  0.00000000E+00
  0.00000000E+00  0.00000000E+00  2.79807918E+00  0.00000000E+00  0.00000000E+00
  0.00000000E+00  2.90075061E-02  0.00000000E+00  0.00000000E+00  7.13329750E-02
  3.32748900E-02  2.74565197E+00  0.00000000E+00  4.94251645E-05 -2.97423707E-02
 -5.60502548E-02 -5.30416074E-03 -4.53925412E+00  0.00000000E+00 -3.72161290E-02
  5.39478401E-03  6.65791486E-03  9.15137119E-03  0.00000000E+00  0.00000000E+00
 -5.74290740E-02  2.09498605E-02  0.00000000E+00  0.00000000E+00 -4.69099357E-02
 -6.28023502E-01  0.00000000E+00  0.00000000E+00 -1.76234547E-01  8.51856281E+00
  0.00000000E+00  0.00000000E+00 -2.52414520E+00  1.26555336E-03  0.00000000E+00
  0.00000000E+00  2.66900170E-02  0.00000000E+00 -5.60502548E-02 -5.30416074E-03
 -4.53925412E+00  0.00000000E+00  3.72161290E-02  5.39478401E-03 -1.15943210E-01
 -1.50992506E+00  3.26355255E+00  0.00000000E+00  8.43643492E-03  1.80781137E-02
  0.00000000E+00  0.00000000E+00  0.00000000E+00  1.75177928E-01  0.00000000E+00
  0.00000000E+00  0.00000000E+00  3.04430386E-01  0.00000000E+00  0.00000000E+00
  0.00000000E+00  8.86717560E-01  0.00000000E+00  0.00000000E+00  0.00000000E+00
 -1.96267927E+00  0.00000000E+00  0.00000000E+00  0.00000000E+00  2.19391165E-02
  0.00000000E+00  0.00000000E+00  1.15943210E-01  1.50992506E+00 -3.26355255E+00
  0.00000000E+00  8.43643492E-03 -1.80781137E-02  1.05332275E-01  1.70626445E+00
 -3.63040136E+00  0.00000000E+00  3.12254251E-03  1.36734253E-02  4.74139962E-02
  8.15379746E-02  0.00000000E+00  0.00000000E+00  1.29273556E-01 -2.89081718E-01
  0.00000000E+00  0.00000000E+00  2.46932376E-01 -1.16240223E+00  0.00000000E+00
  0.00000000E+00  7.23694619E-01  5.16016338E+00  0.00000000E+00  0.00000000E+00
 -1.64839923E+00 -1.01216572E-02  0.00000000E+00  0.00000000E+00 -1.53840085E-02
  0.00000000E+00  1.05332275E-01  1.70626445E+00 -3.63040136E+00  0.00000000E+00
 -3.12254251E-03  1.36734253E-02 -6.04138454E-02 -8.50389920E-01  9.23492093E-01
  0.00000000E+00  1.81926878E-01 -9.70478578E-02  0.00000000E+00  0.00000000E+00
  0.00000000E+00 -2.23182137E-01  0.00000000E+00  0.00000000E+00  0.00000000E+00
 -6.47592120E-01  0.00000000E+00  0.00000000E+00  0.00000000E+00  2.26936176E+00
  0.00000000E+00  0.00000000E+00  0.00000000E+00 -1.38351972E+00  0.00000000E+00
  0.00000000E+00  0.00000000E+00  3.78452059E-03  0.00000000E+00  0.00000000E+00
  6.04138454E-02  8.50389920E-01 -9.23492093E-01  0.00000000E+00  1.81926878E-01
  9.70478578E-02  4.13497744E-02  1.10798954E+00 -1.38827705E+00  0.00000000E+00
 -1.08606876E-01  2.36392117E-01 -4.05381558E-03 -1.16130530E-02  0.00000000E+00
  0.00000000E+00 -2.38408524E-01  2.54785337E-01  0.00000000E+00  0.00000000E+00
 -6.58890855E-01 -1.71783744E+00  0.00000000E+00  0.00000000E+00  2.12854324E+00
  2.28552438E+00  0.00000000E+00  0.00000000E+00 -1.44026409E+00 -1.32627752E-02
  0.00000000E+00  0.00000000E+00 -1.68048530E-03  0.00000000E+00  4.13497744E-02
  1.10798954E+00 -1.38827705E+00  0.00000000E+00  1.08606876E-01  2.36392117E-01
  0.00000000E+00  0.00000000E+00  0.00000000E+00  4.05966027E-02  0.00000000E+00
  0.00000000E+00  0.00000000E+00  0.00000000E+00 -2.69925521E-01  0.00000000E+00
  0.00000000E+00  0.00000000E+00 -8.43157462E-01  0.00000000E+00  0.00000000E+00
  0.00000000E+00  1.59503640E+00  0.00000000E+00  0.00000000E+00  0.00000000E+00
 -7.87725558E-01  0.00000000E+00  0.00000000E+00  0.00000000E+00  1.84683462E-03
  0.00000000E+00  0.00000000E+00  0.00000000E+00  0.00000000E+00  0.00000000E+00
  0.00000000E+00  4.05966027E-02  0.00000000E+00  0.00000000E+00  7.18765091E-02
 -9.12320639E-02 -6.07336259E-01  0.00000000E+00  2.62802639E-01  4.84024244E-01
 -6.24043398E-02 -1.22840999E-01  0.00000000E+00  0.00000000E+00  6.09049302E-02
  9.09373272E-01  0.00000000E+00  0.00000000E+00  2.98582523E-01 -1.39546994E+00
  0.00000000E+00  0.00000000E+00 -9.01727128E-01  1.74257159E+00  0.00000000E+00
  0.00000000E+00 -1.04362336E-01 -1.03960565E-01  0.00000000E+00  0.00000000E+00
 -4.19100031E-02  0.00000000E+00  7.18765091E-02 -9.12320639E-02 -6.07336259E-01
  0.00000000E+00 -2.62802639E-01  4.84024244E-01  0.00000000E+00  0.00000000E+00
  0.00000000E+00  6.85370774E-01  0.00000000E+00  0.00000000E+00  0.00000000E+00
  0.00000000E+00  0.00000000E+00  0.00000000E+00  0.00000000E+00  0.00000000E+00
  0.00000000E+00  0.00000000E+00  0.00000000E+00  0.00000000E+00  0.00000000E+00
  0.00000000E+00  0.00000000E+00  0.00000000E+00  0.00000000E+00  0.00000000E+00
  0.00000000E+00  0.00000000E+00  0.00000000E+00  0.00000000E+00  0.00000000E+00
  1.33802980E-01  0.00000000E+00  0.00000000E+00  0.00000000E+00 -6.85370774E-01
  0.00000000E+00  0.00000000E+00 -1.85654342E-02 -1.67322488E+00  1.82332983E+00
  0.00000000E+00  5.32756743E-01  1.65453097E-01  8.76669561E-02  1.76003747E-01
  0.00000000E+00  0.00000000E+00 -3.61479040E-02 -1.49981432E+00  0.00000000E+00
  0.00000000E+00 -2.01147441E-01  3.98659982E+00  0.00000000E+00  0.00000000E+00
 -1.30834649E+00 -3.56753591E+00  0.00000000E+00  0.00000000E+00  9.24152704E-01
 -9.75844567E-02  0.00000000E+00  0.00000000E+00 -1.56229271E-02  0.00000000E+00
 -1.85654342E-02 -1.67322488E+00  1.82332983E+00  0.00000000E+00 -5.32756743E-01
  1.65453097E-01  0.00000000E+00  0.00000000E+00  0.00000000E+00 -7.65191922E-01
  0.00000000E+00  0.00000000E+00  0.00000000E+00  0.00000000E+00  1.98968899E-02
  0.00000000E+00  0.00000000E+00  0.00000000E+00 -4.58618998E-02  0.00000000E+00
  0.00000000E+00  0.00000000E+00  7.66748706E-01  0.00000000E+00  0.00000000E+00
  0.00000000E+00 -1.43705262E-01  0.00000000E+00  0.00000000E+00  0.00000000E+00
  1.60367394E-01  0.00000000E+00  0.00000000E+00  0.00000000E+00  0.00000000E+00
  0.00000000E+00  0.00000000E+00 -7.65191922E-01  0.00000000E+00  0.00000000E+00
  8.41512376E-02 -7.75452972E-01  5.91318829E-01  0.00000000E+00 -4.83016737E-01
 -6.66653459E-01  0.00000000E+00  0.00000000E+00  0.00000000E+00 -1.50259078E-02
  0.00000000E+00  0.00000000E+00  0.00000000E+00 -7.23954804E-02  0.00000000E+00
  0.00000000E+00  0.00000000E+00  1.14941394E+00  0.00000000E+00  0.00000000E+00
  0.00000000E+00 -4.40184822E-01  0.00000000E+00  0.00000000E+00  0.00000000E+00
 -3.33947326E-02  0.00000000E+00  0.00000000E+00 -8.41512376E-02  7.75452972E-01
 -5.91318829E-01  0.00000000E+00 -4.83016737E-01  6.66653459E-01  6.11996691E-01
 -8.01289222E-01  1.28271518E+00  0.00000000E+00 -4.20321415E-01  4.75882895E-01
  0.00000000E+00  0.00000000E+00  0.00000000E+00 -1.99446710E-01  0.00000000E+00
  0.00000000E+00  0.00000000E+00 -5.31785097E-01  0.00000000E+00  0.00000000E+00
  0.00000000E+00  2.74239587E-01  0.00000000E+00  0.00000000E+00  0.00000000E+00
 -6.29592153E-01  0.00000000E+00  0.00000000E+00  0.00000000E+00 -2.10438663E-01
  0.00000000E+00  0.00000000E+00 -6.11996691E-01  8.01289222E-01 -1.28271518E+00
  0.00000000E+00 -4.20321415E-01 -4.75882895E-01 -7.26892464E-01  8.91983110E-01
 -1.29573356E+00  0.00000000E+00  4.87740329E-01 -2.77472601E-01 -5.16930194E-02
 -9.97538539E-02  0.00000000E+00  0.00000000E+00 -1.58816608E-01  6.13375279E-01
  0.00000000E+00  0.00000000E+00 -3.14805212E-01 -2.80708145E-01  0.00000000E+00
  0.00000000E+00  1.10987822E-01  1.67693357E+00  0.00000000E+00  0.00000000E+00
 -4.43647004E-01 -7.80407621E-02  0.00000000E+00  0.00000000E+00  2.53394385E-01
  0.00000000E+00 -7.26892464E-01  8.91983110E-01 -1.29573356E+00  0.00000000E+00
 -4.87740329E-01 -2.77472601E-01 -8.21173400E-01  2.67287703E+00 -1.76001784E+00
  0.00000000E+00 -8.28288638E-01  5.95637116E-01  3.35967042E-02  7.84018547E-02
  0.00000000E+00  0.00000000E+00 -1.06725600E-02 -5.11088809E-01  0.00000000E+00
  0.00000000E+00  5.85711986E-01 -2.63079649E+00  0.00000000E+00  0.00000000E+00
  1.02730604E+00  2.43406501E+00  0.00000000E+00  0.00000000E+00 -7.30149830E-01
  4.56058855E-02  0.00000000E+00  0.00000000E+00 -5.39986148E-04  0.00000000E+00
 -8.21173400E-01  2.67287703E+00 -1.76001784E+00  0.00000000E+00  8.28288638E-01
  5.95637116E-01 -9.11815895E-01  2.48087311E+00 -1.49571022E+00  0.00000000E+00
 -8.02229640E-01  6.19772641E-01  0.00000000E+00  0.00000000E+00  0.00000000E+00
  3.05395101E-02  0.00000000E+00  0.00000000E+00  0.00000000E+00 -7.71953213E-01
  0.00000000E+00  0.00000000E+00  0.00000000E+00 -1.07911465E+00  0.00000000E+00
  0.00000000E+00  0.00000000E+00  7.57056238E-01  0.00000000E+00  0.00000000E+00
  0.00000000E+00  1.92725576E-01  0.00000000E+00  0.00000000E+00  9.11815895E-01
 -2.48087311E+00  1.49571022E+00  0.00000000E+00 -8.02229640E-01 -6.19772641E-01
  0.00000000E+00  0.00000000E+00  0.00000000E+00  3.65678061E-01  0.00000000E+00
  0.00000000E+00  0.00000000E+00  0.00000000E+00  2.70112487E-03  0.00000000E+00
  0.00000000E+00  0.00000000E+00  1.76856327E-02  0.00000000E+00  0.00000000E+00
  0.00000000E+00 -3.24511124E-01  0.00000000E+00  0.00000000E+00  0.00000000E+00
  5.55826570E-02  0.00000000E+00  0.00000000E+00  0.00000000E+00  1.03111726E+00
  0.00000000E+00  0.00000000E+00  0.00000000E+00  0.00000000E+00  0.00000000E+00
  0.00000000E+00  3.65678061E-01  0.00000000E+00  0.00000000E+00  0.00000000E+00
  0.00000000E+00  0.00000000E+00 -3.43326703E-01  0.00000000E+00  0.00000000E+00
  0.00000000E+00  0.00000000E+00  0.00000000E+00  0.00000000E+00  0.00000000E+00
  0.00000000E+00  0.00000000E+00  0.00000000E+00  0.00000000E+00  0.00000000E+00
  0.00000000E+00  0.00000000E+00  0.00000000E+00  0.00000000E+00  0.00000000E+00
  0.00000000E+00  0.00000000E+00  0.00000000E+00  0.00000000E+00  0.00000000E+00
  0.00000000E+00  1.05142608E+00  0.00000000E+00  0.00000000E+00  0.00000000E+00
  3.43326703E-01  0.00000000E+00  0.00000000E+00  2.91976618E-02 -5.28732967E-01
  2.26230038E-01  0.00000000E+00  3.71756546E-01  2.74074297E-01 -1.76640302E-04
 -1.73851711E-04  0.00000000E+00  0.00000000E+00 -2.81316168E-03 -5.57505676E-02
  0.00000000E+00  0.00000000E+00 -2.45047244E-02  6.88649975E-01  0.00000000E+00
  0.00000000E+00 -6.60390402E-01 -2.85159305E-01  0.00000000E+00  0.00000000E+00
  1.53587178E-01  1.05829352E+00  0.00000000E+00  0.00000000E+00  2.09720450E-01
  0.00000000E+00  2.91976618E-02 -5.28732967E-01  2.26230038E-01  0.00000000E+00
 -3.71756546E-01  2.74074297E-01 -2.10083417E-01 -1.66070595E+00  1.05395922E+00
  0.00000000E+00  7.09059387E-01 -5.04054477E-01 -2.11033779E-02 -3.94133033E-02
  0.00000000E+00  0.00000000E+00 -3.11922330E-01  4.35357251E-02  0.00000000E+00
  0.00000000E+00 -1.01739226E-01  2.76797437E+00  0.00000000E+00  0.00000000E+00
 -1.40932237E+00 -1.78243267E+00  0.00000000E+00  0.00000000E+00  7.02274018E-01
  1.94515677E-01  0.00000000E+00  0.00000000E+00 -1.13032992E+00  0.00000000E+00
 -2.10083417E-01 -1.66070595E+00  1.05395922E+00  0.00000000E+00 -7.09059387E-01
 -5.04054477E-01 -3.05134189E-01 -8.92724999E-01  4.39233902E-01  0.00000000E+00
  5.18238033E-01 -4.07674937E-01  0.00000000E+00  0.00000000E+00  0.00000000E+00
  4.42084090E-01  0.00000000E+00  0.00000000E+00  0.00000000E+00 -5.00972201E-02
  0.00000000E+00  0.00000000E+00  0.00000000E+00  1.27906866E+00  0.00000000E+00
  0.00000000E+00  0.00000000E+00 -5.35832799E-01  0.00000000E+00  0.00000000E+00
  0.00000000E+00 -1.18676678E+00  0.00000000E+00  0.00000000E+00  3.05134189E-01
  8.92724999E-01 -4.39233902E-01  0.00000000E+00  5.18238033E-01  4.07674937E-01
  0.00000000E+00  0.00000000E+00  0.00000000E+00 -3.45200962E-02  0.00000000E+00
  0.00000000E+00  0.00000000E+00  0.00000000E+00 -1.27348503E+00  0.00000000E+00
  0.00000000E+00  0.00000000E+00  1.51521944E+00  0.00000000E+00  0.00000000E+00
  0.00000000E+00 -8.17018282E-01  0.00000000E+00  0.00000000E+00  0.00000000E+00
  3.04921651E-01  0.00000000E+00  0.00000000E+00  0.00000000E+00 -8.00731169E-03
  0.00000000E+00  0.00000000E+00  0.00000000E+00  0.00000000E+00  0.00000000E+00
  0.00000000E+00 -3.45200962E-02  0.00000000E+00  0.00000000E+00  2.38874884E-01
  6.57487869E-01 -3.24674964E-01  0.00000000E+00 -5.00391171E-01  3.03551233E-01
  1.81158408E-02  3.32185658E-02  0.00000000E+00  0.00000000E+00 -1.26192935E+00
 -1.25485149E-01  0.00000000E+00  0.00000000E+00  1.83562961E+00 -1.39176498E+00
  0.00000000E+00  0.00000000E+00 -2.57037933E-01  6.94199861E-01  0.00000000E+00
  0.00000000E+00  4.24367477E-02 -8.24902990E-02  0.00000000E+00  0.00000000E+00
  3.81945733E-01  0.00000000E+00  2.38874884E-01  6.57487869E-01 -3.24674964E-01
  0.00000000E+00  5.00391171E-01  3.03551233E-01 -3.57591137E-01 -3.94539625E-01
 -8.08299172E-02  0.00000000E+00  5.25598685E-01 -4.55909543E-01  0.00000000E+00
  0.00000000E+00  0.00000000E+00 -1.24517528E+00  0.00000000E+00  0.00000000E+00
  0.00000000E+00  2.02445185E+00  0.00000000E+00  0.00000000E+00  0.00000000E+00
 -2.56385624E-01  0.00000000E+00  0.00000000E+00  0.00000000E+00  1.88386889E-01
  0.00000000E+00  0.00000000E+00  0.00000000E+00 -6.37185600E-01  0.00000000E+00
  0.00000000E+00  3.57591137E-01  3.94539625E-01  8.08299172E-02  0.00000000E+00
  5.25598685E-01  4.55909543E-01  7.77580216E-03  3.28646518E-02  6.00014153E-02
  0.00000000E+00 -5.29802348E-02  3.93826767E-02 -2.24665368E+00  2.33822829E+00
  0.00000000E+00  0.00000000E+00 -1.35907869E-02 -2.81496425E-01  0.00000000E+00
  0.00000000E+00  5.50197647E-02  1.41969576E-01  0.00000000E+00  0.00000000E+00
  1.27927650E-02 -1.68274878E-01  0.00000000E+00  0.00000000E+00  2.86210173E-02
 -2.68419339E-03  0.00000000E+00  0.00000000E+00  2.13154170E-02  0.00000000E+00
  7.77580216E-03  3.28646518E-02  6.00014153E-02  0.00000000E+00  5.29802348E-02
  3.93826767E-02
Total SCF Density                          R   N=         595
  8.27308751E-02  1.04618783E-01  1.38346966E-01  2.36450904E-02  3.28557846E-02
  8.29054676E-03 -3.37037740E-34 -3.85185989E-34 -9.62964972E-35  2.36351368E-03
 -1.39370000E-02 -1.76407140E-02 -3.75399825E-03  3.43056271E-34  3.02929837E-03
  7.18602197E-03  7.54493419E-03  1.56374682E-03 -5.71760452E-35 -4.65910034E-04
  1.82647208E-03 -1.55569739E-02 -6.66807446E-03  3.48402794E-04  9.62964972E-35
  3.82499958E-03 -4.95873690E-03  6.38829529E-01 -2.45324805E-02 -1.01356923E-02
  1.94697961E-03  1.44444746E-34  5.36773077E-03 -7.44803127E-03  5.67647214E-01
  5.21060167E-01  1.92592994E-33  2.69630192E-33  5.77778983E-34  2.05215347E-02
 -9.62964972E-34 -2.40741243E-34  0.00000000E+00  0.00000000E+00  1.78181066E-01
  7.45999047E-02  9.94186524E-02  2.57686196E-02  1.82963345E-33 -7.00562475E-03
  1.12619303E-02 -3.30662177E-19 -5.19424830E-19  6.93334780E-33  1.17239018E-01
 -5.68095110E-02 -8.34888737E-02 -1.92989198E-02  1.15555797E-33  1.70427910E-02